
54 atoms
4 atom types
   0.0000000000   10.2247640560 xlo xhi
   0.0000000000   10.2247640560 ylo yhi
   0.0000000000   33.6150000000 zlo zhi
   0.0000000000    0.0000000000    0.0000000000 xy xz yz

Atoms # atomic

     1      1    0.0000000000    0.0000000000   15.0000000000
     2      1    2.5561910140    0.0000000000   15.0000000000
     3      1    5.1123820280    0.0000000000   15.0000000000
     4      1    7.6685730420    0.0000000000   15.0000000000
     5      1    0.0000000000    2.5561910140   15.0000000000
     6      1    2.5561910140    2.5561910140   15.0000000000
     7      1    5.1123820280    2.5561910140   15.0000000000
     8      1    7.6685730420    2.5561910140   15.0000000000
     9      1    0.0000000000    5.1123820280   15.0000000000
    10      1    2.5561910140    5.1123820280   15.0000000000
    11      1    5.1123820280    5.1123820280   15.0000000000
    12      1    7.6685730420    5.1123820280   15.0000000000
    13      1    0.0000000000    7.6685730420   15.0000000000
    14      1    2.5561910140    7.6685730420   15.0000000000
    15      1    5.1123820280    7.6685730420   15.0000000000
    16      1    7.6685730420    7.6685730420   15.0000000000
    17      1    1.2780955070    1.2780955070   16.8075000000
    18      1    3.8342865210    1.2780955070   16.8075000000
    19      1    6.3904775350    1.2780955070   16.8075000000
    20      1    8.9466685490    1.2780955070   16.8075000000
    21      1    1.2780955070    3.8342865210   16.8075000000
    22      1    3.8342865210    3.8342865210   16.8075000000
    23      1    6.3904775350    3.8342865210   16.8075000000
    24      1    8.9466685490    3.8342865210   16.8075000000
    25      1    1.2780955070    6.3904775350   16.8075000000
    26      1    3.8342865210    6.3904775350   16.8075000000
    27      1    6.3904775350    6.3904775350   16.8075000000
    28      1    8.9466685490    6.3904775350   16.8075000000
    29      1    1.2780955070    8.9466685490   16.8075000000
    30      1    3.8342865210    8.9466685490   16.8075000000
    31      1    6.3904775350    8.9466685490   16.8075000000
    32      1    8.9466685490    8.9466685490   16.8075000000
    33      1    0.0000000000    0.0000000000   18.6150000000
    34      1    2.5561910140    0.0000000000   18.6150000000
    35      1    5.1123820280    0.0000000000   18.6150000000
    36      1    7.6685730420    0.0000000000   18.6150000000
    37      1    0.0000000000    2.5561910140   18.6150000000
    38      1    2.5561910140    2.5561910140   18.6150000000
    39      1    5.1123820280    2.5561910140   18.6150000000
    40      1    7.6685730420    2.5561910140   18.6150000000
    41      1    0.0000000000    5.1123820280   18.6150000000
    42      1    2.5561910140    5.1123820280   18.6150000000
    43      1    5.1123820280    5.1123820280   18.6150000000
    44      1    7.6685730420    5.1123820280   18.6150000000
    45      1    0.0000000000    7.6685730420   18.6150000000
    46      1    2.5561910140    7.6685730420   18.6150000000
    47      1    5.1123820280    7.6685730420   18.6150000000
    48      1    7.6685730420    7.6685730420   18.6150000000
    49      3    1.2865410498    1.2780950000   19.8414186849
    50      2    1.2801782184    1.2780950000   21.2880888030
    51      4    2.3147997358    1.2780950000   21.6662965866
    52      4    0.7612423661    2.1745654550   21.6607561673
    53      4    0.7612423661    0.3815345450   21.6607561673
    54      4    6.3875554481    1.2780950000   19.2016854483
