0.000000000000000000e+00 0.000000000000000000e+00 1.500000000000000000e+01 2.556189999999999962e+00 0.000000000000000000e+00 1.500000000000000000e+01 5.112379999999999924e+00 0.000000000000000000e+00 1.500000000000000000e+01 7.668569999999999887e+00 0.000000000000000000e+00 1.500000000000000000e+01 0.000000000000000000e+00 2.556189999999999962e+00 1.500000000000000000e+01 2.556189999999999962e+00 2.556189999999999962e+00 1.500000000000000000e+01 5.112379999999999924e+00 2.556189999999999962e+00 1.500000000000000000e+01 7.668569999999999887e+00 2.556189999999999962e+00 1.500000000000000000e+01 0.000000000000000000e+00 5.112379999999999924e+00 1.500000000000000000e+01 2.556189999999999962e+00 5.112379999999999924e+00 1.500000000000000000e+01 5.112379999999999924e+00 5.112379999999999924e+00 1.500000000000000000e+01 7.668569999999999887e+00 5.112379999999999924e+00 1.500000000000000000e+01 0.000000000000000000e+00 7.668569999999999887e+00 1.500000000000000000e+01 2.556189999999999962e+00 7.668569999999999887e+00 1.500000000000000000e+01 5.112379999999999924e+00 7.668569999999999887e+00 1.500000000000000000e+01 7.668569999999999887e+00 7.668569999999999887e+00 1.500000000000000000e+01 1.278100000000000014e+00 1.278100000000000014e+00 1.680750000000000099e+01 3.834290000000000198e+00 1.278100000000000014e+00 1.680750000000000099e+01 6.390480000000000160e+00 1.278100000000000014e+00 1.680750000000000099e+01 8.946669999999999234e+00 1.278100000000000014e+00 1.680750000000000099e+01 1.278100000000000014e+00 3.834290000000000198e+00 1.680750000000000099e+01 3.834290000000000198e+00 3.834290000000000198e+00 1.680750000000000099e+01 6.390480000000000160e+00 3.834290000000000198e+00 1.680750000000000099e+01 8.946669999999999234e+00 3.834290000000000198e+00 1.680750000000000099e+01 1.278100000000000014e+00 6.390480000000000160e+00 1.680750000000000099e+01 3.834290000000000198e+00 6.390480000000000160e+00 1.680750000000000099e+01 6.390480000000000160e+00 6.390480000000000160e+00 1.680750000000000099e+01 8.946669999999999234e+00 6.390480000000000160e+00 1.680750000000000099e+01 1.278100000000000014e+00 8.946669999999999234e+00 1.680750000000000099e+01 3.834290000000000198e+00 8.946669999999999234e+00 1.680750000000000099e+01 6.390480000000000160e+00 8.946669999999999234e+00 1.680750000000000099e+01 8.946669999999999234e+00 8.946669999999999234e+00 1.680750000000000099e+01 0.000000000000000000e+00 0.000000000000000000e+00 1.861499999999999844e+01 2.556189999999999962e+00 0.000000000000000000e+00 1.861499999999999844e+01 5.112379999999999924e+00 0.000000000000000000e+00 1.861499999999999844e+01 7.668569999999999887e+00 0.000000000000000000e+00 1.861499999999999844e+01 0.000000000000000000e+00 2.556189999999999962e+00 1.861499999999999844e+01 2.556189999999999962e+00 2.556189999999999962e+00 1.861499999999999844e+01 5.112379999999999924e+00 2.556189999999999962e+00 1.861499999999999844e+01 7.668569999999999887e+00 2.556189999999999962e+00 1.861499999999999844e+01 0.000000000000000000e+00 5.112379999999999924e+00 1.861499999999999844e+01 2.556189999999999962e+00 5.112379999999999924e+00 1.861499999999999844e+01 5.112379999999999924e+00 5.112379999999999924e+00 1.861499999999999844e+01 7.668569999999999887e+00 5.112379999999999924e+00 1.861499999999999844e+01 0.000000000000000000e+00 7.668569999999999887e+00 1.861499999999999844e+01 2.556189999999999962e+00 7.668569999999999887e+00 1.861499999999999844e+01 5.112379999999999924e+00 7.668569999999999887e+00 1.861499999999999844e+01 7.668569999999999887e+00 7.668569999999999887e+00 1.861499999999999844e+01 1.286540000000000017e+00 1.278100000000000014e+00 1.984141999999999939e+01 1.280180000000000096e+00 1.278100000000000014e+00 2.128809000000000040e+01 2.314799999999999969e+00 1.278100000000000014e+00 2.166629999999999967e+01 7.612400000000000277e-01 2.174570000000000114e+00 2.166075999999999979e+01 7.612400000000000277e-01 3.815299999999999803e-01 2.166075999999999979e+01 6.387559999999999683e+00 1.278100000000000014e+00 1.920168999999999926e+01
0.000000000000000000e+00 0.000000000000000000e+00 1.500000000000000000e+01 2.556189999999999962e+00 0.000000000000000000e+00 1.500000000000000000e+01 5.112379999999999924e+00 0.000000000000000000e+00 1.500000000000000000e+01 7.668569999999999887e+00 0.000000000000000000e+00 1.500000000000000000e+01 0.000000000000000000e+00 2.556189999999999962e+00 1.500000000000000000e+01 2.556189999999999962e+00 2.556189999999999962e+00 1.500000000000000000e+01 5.112379999999999924e+00 2.556189999999999962e+00 1.500000000000000000e+01 7.668569999999999887e+00 2.556189999999999962e+00 1.500000000000000000e+01 0.000000000000000000e+00 5.112379999999999924e+00 1.500000000000000000e+01 2.556189999999999962e+00 5.112379999999999924e+00 1.500000000000000000e+01 5.112379999999999924e+00 5.112379999999999924e+00 1.500000000000000000e+01 7.668569999999999887e+00 5.112379999999999924e+00 1.500000000000000000e+01 0.000000000000000000e+00 7.668569999999999887e+00 1.500000000000000000e+01 2.556189999999999962e+00 7.668569999999999887e+00 1.500000000000000000e+01 5.112379999999999924e+00 7.668569999999999887e+00 1.500000000000000000e+01 7.668569999999999887e+00 7.668569999999999887e+00 1.500000000000000000e+01 1.278100000000000014e+00 1.278100000000000014e+00 1.680750000000000099e+01 3.834290000000000198e+00 1.278100000000000014e+00 1.680750000000000099e+01 6.390480000000000160e+00 1.278100000000000014e+00 1.680750000000000099e+01 8.946669999999999234e+00 1.278100000000000014e+00 1.680750000000000099e+01 1.278100000000000014e+00 3.834290000000000198e+00 1.680750000000000099e+01 3.834290000000000198e+00 3.834290000000000198e+00 1.680750000000000099e+01 6.390480000000000160e+00 3.834290000000000198e+00 1.680750000000000099e+01 8.946669999999999234e+00 3.834290000000000198e+00 1.680750000000000099e+01 1.278100000000000014e+00 6.390480000000000160e+00 1.680750000000000099e+01 3.834290000000000198e+00 6.390480000000000160e+00 1.680750000000000099e+01 6.390480000000000160e+00 6.390480000000000160e+00 1.680750000000000099e+01 8.946669999999999234e+00 6.390480000000000160e+00 1.680750000000000099e+01 1.278100000000000014e+00 8.946669999999999234e+00 1.680750000000000099e+01 3.834290000000000198e+00 8.946669999999999234e+00 1.680750000000000099e+01 6.390480000000000160e+00 8.946669999999999234e+00 1.680750000000000099e+01 8.946669999999999234e+00 8.946669999999999234e+00 1.680750000000000099e+01 0.000000000000000000e+00 0.000000000000000000e+00 1.861499999999999844e+01 2.556189999999999962e+00 0.000000000000000000e+00 1.861499999999999844e+01 5.112379999999999924e+00 0.000000000000000000e+00 1.861499999999999844e+01 7.668569999999999887e+00 0.000000000000000000e+00 1.861499999999999844e+01 0.000000000000000000e+00 2.556189999999999962e+00 1.861499999999999844e+01 2.556189999999999962e+00 2.556189999999999962e+00 1.861499999999999844e+01 5.112379999999999924e+00 2.556189999999999962e+00 1.861499999999999844e+01 7.668569999999999887e+00 2.556189999999999962e+00 1.861499999999999844e+01 0.000000000000000000e+00 5.112379999999999924e+00 1.861499999999999844e+01 2.556189999999999962e+00 5.112379999999999924e+00 1.861499999999999844e+01 5.112379999999999924e+00 5.112379999999999924e+00 1.861499999999999844e+01 7.668569999999999887e+00 5.112379999999999924e+00 1.861499999999999844e+01 0.000000000000000000e+00 7.668569999999999887e+00 1.861499999999999844e+01 2.556189999999999962e+00 7.668569999999999887e+00 1.861499999999999844e+01 5.112379999999999924e+00 7.668569999999999887e+00 1.861499999999999844e+01 7.668569999999999887e+00 7.668569999999999887e+00 1.861499999999999844e+01 1.286540000000000017e+00 1.278089999999999948e+00 1.984139000000000053e+01 1.280189999999999939e+00 1.278089999999999948e+00 2.128810999999999964e+01 2.314719999999999889e+00 1.278100000000000014e+00 2.166628000000000043e+01 7.612499999999999822e-01 2.174589999999999801e+00 2.166075000000000017e+01 7.612499999999999822e-01 3.815200000000000258e-01 2.166075000000000017e+01 6.387559999999999683e+00 1.278100000000000014e+00 1.920167999999999964e+01
0.000000000000000000e+00 0.000000000000000000e+00 1.500000000000000000e+01 2.556189999999999962e+00 0.000000000000000000e+00 1.500000000000000000e+01 5.112379999999999924e+00 0.000000000000000000e+00 1.500000000000000000e+01 7.668569999999999887e+00 0.000000000000000000e+00 1.500000000000000000e+01 0.000000000000000000e+00 2.556189999999999962e+00 1.500000000000000000e+01 2.556189999999999962e+00 2.556189999999999962e+00 1.500000000000000000e+01 5.112379999999999924e+00 2.556189999999999962e+00 1.500000000000000000e+01 7.668569999999999887e+00 2.556189999999999962e+00 1.500000000000000000e+01 0.000000000000000000e+00 5.112379999999999924e+00 1.500000000000000000e+01 2.556189999999999962e+00 5.112379999999999924e+00 1.500000000000000000e+01 5.112379999999999924e+00 5.112379999999999924e+00 1.500000000000000000e+01 7.668569999999999887e+00 5.112379999999999924e+00 1.500000000000000000e+01 0.000000000000000000e+00 7.668569999999999887e+00 1.500000000000000000e+01 2.556189999999999962e+00 7.668569999999999887e+00 1.500000000000000000e+01 5.112379999999999924e+00 7.668569999999999887e+00 1.500000000000000000e+01 7.668569999999999887e+00 7.668569999999999887e+00 1.500000000000000000e+01 1.278100000000000014e+00 1.278100000000000014e+00 1.680750000000000099e+01 3.834290000000000198e+00 1.278100000000000014e+00 1.680750000000000099e+01 6.390480000000000160e+00 1.278100000000000014e+00 1.680750000000000099e+01 8.946669999999999234e+00 1.278100000000000014e+00 1.680750000000000099e+01 1.278100000000000014e+00 3.834290000000000198e+00 1.680750000000000099e+01 3.834290000000000198e+00 3.834290000000000198e+00 1.680750000000000099e+01 6.390480000000000160e+00 3.834290000000000198e+00 1.680750000000000099e+01 8.946669999999999234e+00 3.834290000000000198e+00 1.680750000000000099e+01 1.278100000000000014e+00 6.390480000000000160e+00 1.680750000000000099e+01 3.834290000000000198e+00 6.390480000000000160e+00 1.680750000000000099e+01 6.390480000000000160e+00 6.390480000000000160e+00 1.680750000000000099e+01 8.946669999999999234e+00 6.390480000000000160e+00 1.680750000000000099e+01 1.278100000000000014e+00 8.946669999999999234e+00 1.680750000000000099e+01 3.834290000000000198e+00 8.946669999999999234e+00 1.680750000000000099e+01 6.390480000000000160e+00 8.946669999999999234e+00 1.680750000000000099e+01 8.946669999999999234e+00 8.946669999999999234e+00 1.680750000000000099e+01 0.000000000000000000e+00 0.000000000000000000e+00 1.861499999999999844e+01 2.556189999999999962e+00 0.000000000000000000e+00 1.861499999999999844e+01 5.112379999999999924e+00 0.000000000000000000e+00 1.861499999999999844e+01 7.668569999999999887e+00 0.000000000000000000e+00 1.861499999999999844e+01 0.000000000000000000e+00 2.556189999999999962e+00 1.861499999999999844e+01 2.556189999999999962e+00 2.556189999999999962e+00 1.861499999999999844e+01 5.112379999999999924e+00 2.556189999999999962e+00 1.861499999999999844e+01 7.668569999999999887e+00 2.556189999999999962e+00 1.861499999999999844e+01 0.000000000000000000e+00 5.112379999999999924e+00 1.861499999999999844e+01 2.556189999999999962e+00 5.112379999999999924e+00 1.861499999999999844e+01 5.112379999999999924e+00 5.112379999999999924e+00 1.861499999999999844e+01 7.668569999999999887e+00 5.112379999999999924e+00 1.861499999999999844e+01 0.000000000000000000e+00 7.668569999999999887e+00 1.861499999999999844e+01 2.556189999999999962e+00 7.668569999999999887e+00 1.861499999999999844e+01 5.112379999999999924e+00 7.668569999999999887e+00 1.861499999999999844e+01 7.668569999999999887e+00 7.668569999999999887e+00 1.861499999999999844e+01 1.286550000000000082e+00 1.278089999999999948e+00 1.984131999999999962e+01 1.280219999999999914e+00 1.278089999999999948e+00 2.128815000000000168e+01 2.314490000000000158e+00 1.278100000000000014e+00 2.166622999999999877e+01 7.612700000000000022e-01 2.174640000000000128e+00 2.166073000000000093e+01 7.612900000000000222e-01 3.814699999999999758e-01 2.166072000000000131e+01 6.387579999999999814e+00 1.278100000000000014e+00 1.920167000000000002e+01
0.000000000000000000e+00 0.000000000000000000e+00 1.500000000000000000e+01 2.556189999999999962e+00 0.000000000000000000e+00 1.500000000000000000e+01 5.112379999999999924e+00 0.000000000000000000e+00 1.500000000000000000e+01 7.668569999999999887e+00 0.000000000000000000e+00 1.500000000000000000e+01 0.000000000000000000e+00 2.556189999999999962e+00 1.500000000000000000e+01 2.556189999999999962e+00 2.556189999999999962e+00 1.500000000000000000e+01 5.112379999999999924e+00 2.556189999999999962e+00 1.500000000000000000e+01 7.668569999999999887e+00 2.556189999999999962e+00 1.500000000000000000e+01 0.000000000000000000e+00 5.112379999999999924e+00 1.500000000000000000e+01 2.556189999999999962e+00 5.112379999999999924e+00 1.500000000000000000e+01 5.112379999999999924e+00 5.112379999999999924e+00 1.500000000000000000e+01 7.668569999999999887e+00 5.112379999999999924e+00 1.500000000000000000e+01 0.000000000000000000e+00 7.668569999999999887e+00 1.500000000000000000e+01 2.556189999999999962e+00 7.668569999999999887e+00 1.500000000000000000e+01 5.112379999999999924e+00 7.668569999999999887e+00 1.500000000000000000e+01 7.668569999999999887e+00 7.668569999999999887e+00 1.500000000000000000e+01 1.278100000000000014e+00 1.278100000000000014e+00 1.680750000000000099e+01 3.834290000000000198e+00 1.278100000000000014e+00 1.680750000000000099e+01 6.390480000000000160e+00 1.278100000000000014e+00 1.680750000000000099e+01 8.946669999999999234e+00 1.278100000000000014e+00 1.680750000000000099e+01 1.278100000000000014e+00 3.834290000000000198e+00 1.680750000000000099e+01 3.834290000000000198e+00 3.834290000000000198e+00 1.680750000000000099e+01 6.390480000000000160e+00 3.834290000000000198e+00 1.680750000000000099e+01 8.946669999999999234e+00 3.834290000000000198e+00 1.680750000000000099e+01 1.278100000000000014e+00 6.390480000000000160e+00 1.680750000000000099e+01 3.834290000000000198e+00 6.390480000000000160e+00 1.680750000000000099e+01 6.390480000000000160e+00 6.390480000000000160e+00 1.680750000000000099e+01 8.946669999999999234e+00 6.390480000000000160e+00 1.680750000000000099e+01 1.278100000000000014e+00 8.946669999999999234e+00 1.680750000000000099e+01 3.834290000000000198e+00 8.946669999999999234e+00 1.680750000000000099e+01 6.390480000000000160e+00 8.946669999999999234e+00 1.680750000000000099e+01 8.946669999999999234e+00 8.946669999999999234e+00 1.680750000000000099e+01 0.000000000000000000e+00 0.000000000000000000e+00 1.861499999999999844e+01 2.556189999999999962e+00 0.000000000000000000e+00 1.861499999999999844e+01 5.112379999999999924e+00 0.000000000000000000e+00 1.861499999999999844e+01 7.668569999999999887e+00 0.000000000000000000e+00 1.861499999999999844e+01 0.000000000000000000e+00 2.556189999999999962e+00 1.861499999999999844e+01 2.556189999999999962e+00 2.556189999999999962e+00 1.861499999999999844e+01 5.112379999999999924e+00 2.556189999999999962e+00 1.861499999999999844e+01 7.668569999999999887e+00 2.556189999999999962e+00 1.861499999999999844e+01 0.000000000000000000e+00 5.112379999999999924e+00 1.861499999999999844e+01 2.556189999999999962e+00 5.112379999999999924e+00 1.861499999999999844e+01 5.112379999999999924e+00 5.112379999999999924e+00 1.861499999999999844e+01 7.668569999999999887e+00 5.112379999999999924e+00 1.861499999999999844e+01 0.000000000000000000e+00 7.668569999999999887e+00 1.861499999999999844e+01 2.556189999999999962e+00 7.668569999999999887e+00 1.861499999999999844e+01 5.112379999999999924e+00 7.668569999999999887e+00 1.861499999999999844e+01 7.668569999999999887e+00 7.668569999999999887e+00 1.861499999999999844e+01 1.286559999999999926e+00 1.278089999999999948e+00 1.984120000000000061e+01 1.280270000000000019e+00 1.278089999999999948e+00 2.128822999999999865e+01 2.314200000000000035e+00 1.278100000000000014e+00 2.166618000000000066e+01 7.613100000000000422e-01 2.174729999999999830e+00 2.166069999999999851e+01 7.613400000000000167e-01 3.813900000000000068e-01 2.166067999999999927e+01 6.387620000000000076e+00 1.278100000000000014e+00 1.920164000000000115e+01
0.000000000000000000e+00 0.000000000000000000e+00 1.500000000000000000e+01 2.556189999999999962e+00 0.000000000000000000e+00 1.500000000000000000e+01 5.112379999999999924e+00 0.000000000000000000e+00 1.500000000000000000e+01 7.668569999999999887e+00 0.000000000000000000e+00 1.500000000000000000e+01 0.000000000000000000e+00 2.556189999999999962e+00 1.500000000000000000e+01 2.556189999999999962e+00 2.556189999999999962e+00 1.500000000000000000e+01 5.112379999999999924e+00 2.556189999999999962e+00 1.500000000000000000e+01 7.668569999999999887e+00 2.556189999999999962e+00 1.500000000000000000e+01 0.000000000000000000e+00 5.112379999999999924e+00 1.500000000000000000e+01 2.556189999999999962e+00 5.112379999999999924e+00 1.500000000000000000e+01 5.112379999999999924e+00 5.112379999999999924e+00 1.500000000000000000e+01 7.668569999999999887e+00 5.112379999999999924e+00 1.500000000000000000e+01 0.000000000000000000e+00 7.668569999999999887e+00 1.500000000000000000e+01 2.556189999999999962e+00 7.668569999999999887e+00 1.500000000000000000e+01 5.112379999999999924e+00 7.668569999999999887e+00 1.500000000000000000e+01 7.668569999999999887e+00 7.668569999999999887e+00 1.500000000000000000e+01 1.278100000000000014e+00 1.278100000000000014e+00 1.680750000000000099e+01 3.834290000000000198e+00 1.278100000000000014e+00 1.680750000000000099e+01 6.390480000000000160e+00 1.278100000000000014e+00 1.680750000000000099e+01 8.946669999999999234e+00 1.278100000000000014e+00 1.680750000000000099e+01 1.278100000000000014e+00 3.834290000000000198e+00 1.680750000000000099e+01 3.834290000000000198e+00 3.834290000000000198e+00 1.680750000000000099e+01 6.390480000000000160e+00 3.834290000000000198e+00 1.680750000000000099e+01 8.946669999999999234e+00 3.834290000000000198e+00 1.680750000000000099e+01 1.278100000000000014e+00 6.390480000000000160e+00 1.680750000000000099e+01 3.834290000000000198e+00 6.390480000000000160e+00 1.680750000000000099e+01 6.390480000000000160e+00 6.390480000000000160e+00 1.680750000000000099e+01 8.946669999999999234e+00 6.390480000000000160e+00 1.680750000000000099e+01 1.278100000000000014e+00 8.946669999999999234e+00 1.680750000000000099e+01 3.834290000000000198e+00 8.946669999999999234e+00 1.680750000000000099e+01 6.390480000000000160e+00 8.946669999999999234e+00 1.680750000000000099e+01 8.946669999999999234e+00 8.946669999999999234e+00 1.680750000000000099e+01 0.000000000000000000e+00 0.000000000000000000e+00 1.861499999999999844e+01 2.556189999999999962e+00 0.000000000000000000e+00 1.861499999999999844e+01 5.112379999999999924e+00 0.000000000000000000e+00 1.861499999999999844e+01 7.668569999999999887e+00 0.000000000000000000e+00 1.861499999999999844e+01 0.000000000000000000e+00 2.556189999999999962e+00 1.861499999999999844e+01 2.556189999999999962e+00 2.556189999999999962e+00 1.861499999999999844e+01 5.112379999999999924e+00 2.556189999999999962e+00 1.861499999999999844e+01 7.668569999999999887e+00 2.556189999999999962e+00 1.861499999999999844e+01 0.000000000000000000e+00 5.112379999999999924e+00 1.861499999999999844e+01 2.556189999999999962e+00 5.112379999999999924e+00 1.861499999999999844e+01 5.112379999999999924e+00 5.112379999999999924e+00 1.861499999999999844e+01 7.668569999999999887e+00 5.112379999999999924e+00 1.861499999999999844e+01 0.000000000000000000e+00 7.668569999999999887e+00 1.861499999999999844e+01 2.556189999999999962e+00 7.668569999999999887e+00 1.861499999999999844e+01 5.112379999999999924e+00 7.668569999999999887e+00 1.861499999999999844e+01 7.668569999999999887e+00 7.668569999999999887e+00 1.861499999999999844e+01 1.286569999999999991e+00 1.278089999999999948e+00 1.984102999999999994e+01 1.280329999999999968e+00 1.278080000000000105e+00 2.128832999999999842e+01 2.313940000000000108e+00 1.278100000000000014e+00 2.166614999999999824e+01 7.613699999999999912e-01 2.174830000000000041e+00 2.166065000000000040e+01 7.614199999999999857e-01 3.812999999999999723e-01 2.166060999999999837e+01 6.387669999999999959e+00 1.278100000000000014e+00 1.920160999999999873e+01
0.000000000000000000e+00 0.000000000000000000e+00 1.500000000000000000e+01 2.556189999999999962e+00 0.000000000000000000e+00 1.500000000000000000e+01 5.112379999999999924e+00 0.000000000000000000e+00 1.500000000000000000e+01 7.668569999999999887e+00 0.000000000000000000e+00 1.500000000000000000e+01 0.000000000000000000e+00 2.556189999999999962e+00 1.500000000000000000e+01 2.556189999999999962e+00 2.556189999999999962e+00 1.500000000000000000e+01 5.112379999999999924e+00 2.556189999999999962e+00 1.500000000000000000e+01 7.668569999999999887e+00 2.556189999999999962e+00 1.500000000000000000e+01 0.000000000000000000e+00 5.112379999999999924e+00 1.500000000000000000e+01 2.556189999999999962e+00 5.112379999999999924e+00 1.500000000000000000e+01 5.112379999999999924e+00 5.112379999999999924e+00 1.500000000000000000e+01 7.668569999999999887e+00 5.112379999999999924e+00 1.500000000000000000e+01 0.000000000000000000e+00 7.668569999999999887e+00 1.500000000000000000e+01 2.556189999999999962e+00 7.668569999999999887e+00 1.500000000000000000e+01 5.112379999999999924e+00 7.668569999999999887e+00 1.500000000000000000e+01 7.668569999999999887e+00 7.668569999999999887e+00 1.500000000000000000e+01 1.278100000000000014e+00 1.278100000000000014e+00 1.680750000000000099e+01 3.834290000000000198e+00 1.278100000000000014e+00 1.680750000000000099e+01 6.390480000000000160e+00 1.278100000000000014e+00 1.680750000000000099e+01 8.946669999999999234e+00 1.278100000000000014e+00 1.680750000000000099e+01 1.278100000000000014e+00 3.834290000000000198e+00 1.680750000000000099e+01 3.834290000000000198e+00 3.834290000000000198e+00 1.680750000000000099e+01 6.390480000000000160e+00 3.834290000000000198e+00 1.680750000000000099e+01 8.946669999999999234e+00 3.834290000000000198e+00 1.680750000000000099e+01 1.278100000000000014e+00 6.390480000000000160e+00 1.680750000000000099e+01 3.834290000000000198e+00 6.390480000000000160e+00 1.680750000000000099e+01 6.390480000000000160e+00 6.390480000000000160e+00 1.680750000000000099e+01 8.946669999999999234e+00 6.390480000000000160e+00 1.680750000000000099e+01 1.278100000000000014e+00 8.946669999999999234e+00 1.680750000000000099e+01 3.834290000000000198e+00 8.946669999999999234e+00 1.680750000000000099e+01 6.390480000000000160e+00 8.946669999999999234e+00 1.680750000000000099e+01 8.946669999999999234e+00 8.946669999999999234e+00 1.680750000000000099e+01 0.000000000000000000e+00 0.000000000000000000e+00 1.861499999999999844e+01 2.556189999999999962e+00 0.000000000000000000e+00 1.861499999999999844e+01 5.112379999999999924e+00 0.000000000000000000e+00 1.861499999999999844e+01 7.668569999999999887e+00 0.000000000000000000e+00 1.861499999999999844e+01 0.000000000000000000e+00 2.556189999999999962e+00 1.861499999999999844e+01 2.556189999999999962e+00 2.556189999999999962e+00 1.861499999999999844e+01 5.112379999999999924e+00 2.556189999999999962e+00 1.861499999999999844e+01 7.668569999999999887e+00 2.556189999999999962e+00 1.861499999999999844e+01 0.000000000000000000e+00 5.112379999999999924e+00 1.861499999999999844e+01 2.556189999999999962e+00 5.112379999999999924e+00 1.861499999999999844e+01 5.112379999999999924e+00 5.112379999999999924e+00 1.861499999999999844e+01 7.668569999999999887e+00 5.112379999999999924e+00 1.861499999999999844e+01 0.000000000000000000e+00 7.668569999999999887e+00 1.861499999999999844e+01 2.556189999999999962e+00 7.668569999999999887e+00 1.861499999999999844e+01 5.112379999999999924e+00 7.668569999999999887e+00 1.861499999999999844e+01 7.668569999999999887e+00 7.668569999999999887e+00 1.861499999999999844e+01 1.286580000000000057e+00 1.278089999999999948e+00 1.984082000000000079e+01 1.280380000000000074e+00 1.278080000000000105e+00 2.128845000000000098e+01 2.313810000000000144e+00 1.278100000000000014e+00 2.166617000000000104e+01 7.614499999999999602e-01 2.174920000000000186e+00 2.166056999999999988e+01 7.615199999999999747e-01 3.811999999999999833e-01 2.166052000000000177e+01 6.387730000000000352e+00 1.278110000000000079e+00 1.920157000000000025e+01
0.000000000000000000e+00 0.000000000000000000e+00 1.500000000000000000e+01 2.556189999999999962e+00 0.000000000000000000e+00 1.500000000000000000e+01 5.112379999999999924e+00 0.000000000000000000e+00 1.500000000000000000e+01 7.668569999999999887e+00 0.000000000000000000e+00 1.500000000000000000e+01 0.000000000000000000e+00 2.556189999999999962e+00 1.500000000000000000e+01 2.556189999999999962e+00 2.556189999999999962e+00 1.500000000000000000e+01 5.112379999999999924e+00 2.556189999999999962e+00 1.500000000000000000e+01 7.668569999999999887e+00 2.556189999999999962e+00 1.500000000000000000e+01 0.000000000000000000e+00 5.112379999999999924e+00 1.500000000000000000e+01 2.556189999999999962e+00 5.112379999999999924e+00 1.500000000000000000e+01 5.112379999999999924e+00 5.112379999999999924e+00 1.500000000000000000e+01 7.668569999999999887e+00 5.112379999999999924e+00 1.500000000000000000e+01 0.000000000000000000e+00 7.668569999999999887e+00 1.500000000000000000e+01 2.556189999999999962e+00 7.668569999999999887e+00 1.500000000000000000e+01 5.112379999999999924e+00 7.668569999999999887e+00 1.500000000000000000e+01 7.668569999999999887e+00 7.668569999999999887e+00 1.500000000000000000e+01 1.278100000000000014e+00 1.278100000000000014e+00 1.680750000000000099e+01 3.834290000000000198e+00 1.278100000000000014e+00 1.680750000000000099e+01 6.390480000000000160e+00 1.278100000000000014e+00 1.680750000000000099e+01 8.946669999999999234e+00 1.278100000000000014e+00 1.680750000000000099e+01 1.278100000000000014e+00 3.834290000000000198e+00 1.680750000000000099e+01 3.834290000000000198e+00 3.834290000000000198e+00 1.680750000000000099e+01 6.390480000000000160e+00 3.834290000000000198e+00 1.680750000000000099e+01 8.946669999999999234e+00 3.834290000000000198e+00 1.680750000000000099e+01 1.278100000000000014e+00 6.390480000000000160e+00 1.680750000000000099e+01 3.834290000000000198e+00 6.390480000000000160e+00 1.680750000000000099e+01 6.390480000000000160e+00 6.390480000000000160e+00 1.680750000000000099e+01 8.946669999999999234e+00 6.390480000000000160e+00 1.680750000000000099e+01 1.278100000000000014e+00 8.946669999999999234e+00 1.680750000000000099e+01 3.834290000000000198e+00 8.946669999999999234e+00 1.680750000000000099e+01 6.390480000000000160e+00 8.946669999999999234e+00 1.680750000000000099e+01 8.946669999999999234e+00 8.946669999999999234e+00 1.680750000000000099e+01 0.000000000000000000e+00 0.000000000000000000e+00 1.861499999999999844e+01 2.556189999999999962e+00 0.000000000000000000e+00 1.861499999999999844e+01 5.112379999999999924e+00 0.000000000000000000e+00 1.861499999999999844e+01 7.668569999999999887e+00 0.000000000000000000e+00 1.861499999999999844e+01 0.000000000000000000e+00 2.556189999999999962e+00 1.861499999999999844e+01 2.556189999999999962e+00 2.556189999999999962e+00 1.861499999999999844e+01 5.112379999999999924e+00 2.556189999999999962e+00 1.861499999999999844e+01 7.668569999999999887e+00 2.556189999999999962e+00 1.861499999999999844e+01 0.000000000000000000e+00 5.112379999999999924e+00 1.861499999999999844e+01 2.556189999999999962e+00 5.112379999999999924e+00 1.861499999999999844e+01 5.112379999999999924e+00 5.112379999999999924e+00 1.861499999999999844e+01 7.668569999999999887e+00 5.112379999999999924e+00 1.861499999999999844e+01 0.000000000000000000e+00 7.668569999999999887e+00 1.861499999999999844e+01 2.556189999999999962e+00 7.668569999999999887e+00 1.861499999999999844e+01 5.112379999999999924e+00 7.668569999999999887e+00 1.861499999999999844e+01 7.668569999999999887e+00 7.668569999999999887e+00 1.861499999999999844e+01 1.286610000000000031e+00 1.278089999999999948e+00 1.984055000000000035e+01 1.280429999999999957e+00 1.278080000000000105e+00 2.128858999999999924e+01 2.313870000000000093e+00 1.278110000000000079e+00 2.166626000000000118e+01 7.615499999999999492e-01 2.174999999999999822e+00 2.166047000000000011e+01 7.616399999999999837e-01 3.810999999999999943e-01 2.166041999999999845e+01 6.387819999999999609e+00 1.278110000000000079e+00 1.920151999999999859e+01