-1.901962803099999917e+02
-1.901963364599999977e+02
-1.901963851799999929e+02
-1.901963833599999987e+02
-1.901963851399999896e+02
-1.901963768100000038e+02
-1.901963206400000104e+02
-1.901961882399999979e+02
-1.901962168000000020e+02
-1.901963173499999868e+02
-1.901962859600000115e+02
-1.901963484999999991e+02
-1.901963518299999976e+02
-1.901960557600000072e+02
-1.901957969400000081e+02
-1.901955987599999958e+02
-1.901959245399999929e+02
-1.901961085700000069e+02
-1.901958951199999888e+02
-1.901959110500000065e+02
-1.901957388799999933e+02
-1.901955280100000039e+02
-1.901954069399999980e+02
-1.901949628700000119e+02
-1.901956881399999872e+02
-1.901954108500000018e+02
-1.901944221500000083e+02
-1.901926249100000064e+02
-1.901882438499999921e+02
-1.901799471100000005e+02
-1.901654072400000075e+02
-1.901323488699999871e+02
-1.900707659400000011e+02
-1.899692393999999922e+02
-1.898267586999999992e+02
-1.896633809699999915e+02
-1.895050314599999979e+02
-1.893706490300000098e+02
-1.892696075000000064e+02
-1.891991463800000020e+02
-1.891530673800000102e+02
-1.891268381900000008e+02
-1.891153694699999903e+02
-1.891148328099999958e+02
-1.891212674900000081e+02
-1.891329674799999907e+02
-1.891495758000000080e+02
-1.891699100099999953e+02
-1.891922679900000048e+02
-1.892159982700000000e+02
-1.892416555899999935e+02
-1.892688309399999866e+02
-1.892965017100000011e+02
-1.893246925599999884e+02
-1.893540271500000074e+02
-1.893844406199999924e+02
-1.894142808599999910e+02
-1.894468623799999989e+02
-1.894783034799999939e+02
-1.895097035599999913e+02
-1.895409587000000045e+02
-1.895729062400000089e+02
-1.896059432300000083e+02
-1.896386047999999960e+02
-1.896707096300000046e+02
-1.897034652400000141e+02
-1.897365491500000019e+02
-1.897698396199999991e+02
-1.898021118000000058e+02
-1.898336196699999903e+02
-1.898645422099999962e+02
-1.898950928700000134e+02
-1.899253133999999932e+02
-1.899550055100000066e+02
-1.899836316500000066e+02
-1.900100660600000140e+02
-1.900342089300000055e+02
-1.900575059399999986e+02
-1.900779841799999872e+02
-1.900958837000000017e+02
-1.901103866800000048e+02
-1.901214904800000056e+02
-1.901298023900000089e+02
-1.901355738999999971e+02
-1.901383968400000128e+02
-1.901384153500000025e+02
-1.901352029200000118e+02
-1.901295953800000120e+02
-1.901220262500000047e+02
-1.901127293600000030e+02
-1.901020843800000080e+02
-1.900897738300000128e+02
-1.900764192899999898e+02
-1.900628970399999957e+02
-1.900494333800000106e+02
-1.900350613200000112e+02
-1.900198306400000092e+02
-1.900046083599999918e+02
-1.899896402900000112e+02
-1.899744563700000128e+02
-1.899595304599999963e+02
-1.899437673600000096e+02
-1.899278325100000018e+02
-1.899116190800000084e+02
-1.898949298400000032e+02
-1.898784495399999912e+02
-1.898620374200000072e+02
-1.898451209600000027e+02
-1.898274260999999967e+02
-1.898095335700000135e+02
-1.897915428400000053e+02
-1.897732703000000072e+02
-1.897544059600000139e+02
-1.897339919400000099e+02
-1.897119795300000078e+02
-1.896887829099999863e+02
-1.896635156499999937e+02
-1.896364879099999996e+02
-1.896073076000000128e+02
-1.895760682599999996e+02
-1.895410850499999924e+02
-1.895032981299999904e+02
-1.894624552200000096e+02
-1.894191712800000005e+02
-1.893748994299999993e+02
-1.893308039700000052e+02
-1.892865962099999990e+02
-1.892423659899999961e+02
-1.892046211900000117e+02
-1.891672921100000053e+02
-1.891333993799999860e+02
-1.891024495700000045e+02
-1.890751619499999947e+02
-1.890510255400000119e+02
-1.890296627699999874e+02
-1.890096962499999904e+02
-1.889913876599999867e+02
-1.889743640499999913e+02
-1.889580381199999977e+02
-1.889420585400000050e+02
-1.889260736299999905e+02
-1.889097454099999993e+02
-1.888948415700000112e+02
-1.888786417000000029e+02
-1.888617672899999889e+02
-1.888457980700000007e+02
-1.888293146899999897e+02
-1.888124327399999913e+02
-1.887969402299999899e+02
-1.887817530300000044e+02
-1.887670237099999895e+02
-1.887530441600000017e+02
-1.887400086000000101e+02
-1.887272342200000139e+02
-1.887133509299999901e+02
-1.886979381399999909e+02
-1.886804706599999975e+02
-1.886607138900000109e+02
-1.886331105600000058e+02
-1.886053797700000132e+02
-1.885704819299999997e+02
-1.885328395200000102e+02
-1.884938269099999957e+02
-1.884559066900000062e+02
-1.884219303300000092e+02
-1.883940239000000076e+02
-1.883729271999999924e+02
-1.883588156900000001e+02
-1.883494536999999980e+02
-1.883432623500000034e+02
-1.883391174100000001e+02
-1.883349439399999881e+02
-1.883314043299999980e+02
-1.883290934300000004e+02
-1.883278688000000045e+02
-1.883282140999999967e+02
-1.883306056000000126e+02
-1.883362604600000054e+02
-1.883438910499999963e+02
-1.883514397600000052e+02
-1.883596053900000129e+02
-1.883682405000000131e+02
-1.883787765499999978e+02
-1.883843102300000112e+02
-1.883874781600000006e+02
-1.883878243000000055e+02
-1.883868473699999981e+02
-1.883850367500000118e+02
-1.883833127100000127e+02
-1.883834993000000111e+02
-1.883872060799999986e+02
-1.883938176199999930e+02
-1.884050578599999994e+02
-1.884167273200000068e+02
-1.884346227100000135e+02
-1.884513192500000116e+02
-1.884664685299999860e+02
-1.884834060299999976e+02
-1.884971164600000009e+02
-1.885079258099999890e+02
