4.401999999999999663e-02 3.989399999999999891e-02 1.371999999999999956e-02 -4.422800000000000342e-02 3.928899999999999754e-02 1.372899999999999988e-02 2.708800000000000097e-02 2.629599999999999993e-02 6.899399999999999977e-02 -2.699299999999999963e-02 2.682599999999999915e-02 6.992400000000000004e-02 4.401999999999999663e-02 -3.990199999999999997e-02 1.439200000000000028e-02 -4.422000000000000236e-02 -3.929200000000000054e-02 1.392400000000000061e-02 2.709299999999999903e-02 -2.629099999999999840e-02 6.965899999999999870e-02 -2.700400000000000023e-02 -2.682199999999999862e-02 7.012799999999999589e-02 2.884300000000000058e-02 5.851000000000000298e-03 8.292599999999999971e-02 -2.907799999999999968e-02 4.807999999999999774e-03 8.420099999999999807e-02 4.361799999999999705e-02 2.454200000000000131e-02 5.605999999999999872e-02 -4.333700000000000052e-02 2.584799999999999945e-02 5.586800000000000099e-02 2.884000000000000105e-02 -5.852000000000000431e-03 8.356500000000000039e-02 -2.907699999999999868e-02 -4.830000000000000092e-03 8.439099999999999380e-02 4.362100000000000005e-02 -2.455299999999999844e-02 5.670000000000000040e-02 -4.333599999999999952e-02 -2.585099999999999898e-02 5.605299999999999866e-02 -2.086999999999999880e-03 -2.599999999999999840e-05 -6.193229999999999569e-01 -9.452000000000000679e-02 -7.999999999999999638e-06 -8.152700000000000224e-02 3.092000000000000130e-03 -4.300000000000000165e-05 -4.201550000000000007e-01 9.272099999999999786e-02 -1.299999999999999920e-05 -8.407000000000000584e-02 1.310000000000000129e-04 -3.348899999999999794e-02 -9.920000000000000432e-04 -1.204700000000000042e-02 -1.163249999999999978e-01 1.306499999999999884e-01 1.005999999999999950e-03 7.731399999999999384e-02 -6.190999999999999975e-02 1.053300000000000070e-02 -1.153470000000000051e-01 1.295060000000000100e-01 9.899999999999999404e-05 0.000000000000000000e+00 -3.446300000000000058e-02 1.583499999999999838e-02 -4.000000000000000327e-05 2.010599999999999887e-02 -5.199999999999999544e-04 -2.500000000000000120e-05 3.022599999999999940e-02 -1.559999999999999928e-02 -2.900000000000000017e-05 1.844600000000000059e-02 1.219999999999999974e-04 3.351699999999999818e-02 -9.590000000000000000e-04 -1.207800000000000019e-02 1.163779999999999953e-01 1.306489999999999874e-01 1.012000000000000096e-03 -7.725799999999999335e-02 -6.190999999999999975e-02 1.054000000000000076e-02 1.153769999999999935e-01 1.294859999999999900e-01 -1.879240000000000077e-01 -2.149580000000000102e-01 5.700199999999999712e-02 1.785130000000000050e-01 -2.306390000000000107e-01 7.683299999999999852e-02 6.925800000000000012e-02 -1.479000000000000063e-03 5.729999999999999677e-02 -6.922899999999999887e-02 -2.887999999999999942e-03 5.718100000000000266e-02 -1.874300000000000133e-01 2.147930000000000117e-01 5.666000000000000203e-02 1.784540000000000015e-01 2.309060000000000001e-01 7.637499999999999845e-02 6.940399999999999348e-02 1.356999999999999916e-03 5.671099999999999752e-02 -6.919500000000000650e-02 2.923999999999999950e-03 5.698000000000000287e-02 -4.593599999999999767e-02 -7.387000000000000337e-03 -7.547099999999999642e-02 4.515799999999999675e-02 -5.586999999999999952e-03 -7.667000000000000204e-02 -3.655999999999999962e-03 -3.562000000000000062e-03 -6.772499999999999354e-02 3.984999999999999827e-03 -3.122000000000000209e-03 -6.688500000000000001e-02 -4.599899999999999822e-02 7.361000000000000355e-03 -7.616599999999999759e-02 4.521399999999999725e-02 5.544000000000000317e-03 -7.691900000000000126e-02 -3.657999999999999793e-03 3.559999999999999797e-03 -6.837200000000000222e-02 3.990999999999999756e-03 3.122999999999999908e-03 -6.708400000000000474e-02 5.027000000000000218e-03 -7.569999999999999689e-04 -8.075200000000000433e-02 2.939800000000000052e-02 -1.923999999999999929e-03 4.066000000000000170e-02 -1.733099999999999918e-02 5.500000000000000196e-05 -3.847000000000000159e-03 1.433000000000000029e-03 4.303999999999999666e-03 -1.164000000000000104e-03 2.338999999999999933e-03 -3.592000000000000141e-03 -1.786999999999999960e-03 1.464000000000000024e-03 9.100000000000000287e-05 -9.779999999999999197e-04
4.401900000000000257e-02 3.988499999999999684e-02 1.379700000000000024e-02 -4.419499999999999817e-02 3.928199999999999747e-02 1.378500000000000038e-02 2.706199999999999925e-02 2.633399999999999977e-02 6.910099999999999576e-02 -2.701100000000000029e-02 2.684599999999999834e-02 7.000800000000000078e-02 4.401700000000000057e-02 -3.987999999999999878e-02 1.444800000000000077e-02 -4.420000000000000318e-02 -3.928700000000000248e-02 1.398899999999999970e-02 2.707000000000000031e-02 -2.633500000000000077e-02 6.977500000000000369e-02 -2.700699999999999976e-02 -2.683800000000000074e-02 7.022200000000000664e-02 2.886999999999999983e-02 5.841999999999999971e-03 8.303199999999999470e-02 -2.909499999999999933e-02 4.806000000000000376e-03 8.431299999999999906e-02 4.359400000000000081e-02 2.452299999999999966e-02 5.618599999999999983e-02 -4.333000000000000046e-02 2.583600000000000133e-02 5.594400000000000067e-02 2.886800000000000130e-02 -5.854999999999999961e-03 8.367700000000000138e-02 -2.909600000000000034e-02 -4.827999999999999826e-03 8.449500000000000066e-02 4.360300000000000287e-02 -2.453599999999999878e-02 5.682500000000000051e-02 -4.332699999999999746e-02 -2.583999999999999839e-02 5.613400000000000334e-02 -2.060999999999999898e-03 -1.900000000000000105e-05 -6.192999999999999616e-01 -9.445800000000000030e-02 -7.999999999999999638e-06 -8.149800000000000100e-02 3.073000000000000211e-03 -4.500000000000000283e-05 -4.200729999999999742e-01 9.265800000000000425e-02 -6.000000000000000152e-06 -8.401699999999999446e-02 1.459999999999999981e-04 -3.347699999999999981e-02 -1.013999999999999927e-03 -1.203300000000000029e-02 -1.162760000000000044e-01 1.306180000000000119e-01 9.929999999999999591e-04 7.729800000000000559e-02 -6.183400000000000007e-02 1.050700000000000071e-02 -1.153060000000000057e-01 1.294730000000000047e-01 1.119999999999999983e-04 -1.999999999999999909e-06 -3.450799999999999701e-02 1.585200000000000151e-02 -4.699999999999999724e-05 2.016099999999999837e-02 -5.360000000000000181e-04 -2.500000000000000120e-05 3.030800000000000161e-02 -1.560600000000000008e-02 -3.300000000000000253e-05 1.848699999999999996e-02 1.389999999999999905e-04 3.349900000000000100e-02 -9.820000000000000170e-04 -1.206400000000000007e-02 1.163330000000000058e-01 1.306039999999999979e-01 9.979999999999999722e-04 -7.724100000000000410e-02 -6.184300000000000214e-02 1.050700000000000071e-02 1.153340000000000060e-01 1.294599999999999917e-01 -1.879300000000000137e-01 -2.149159999999999959e-01 5.688300000000000300e-02 1.785309999999999953e-01 -2.306110000000000104e-01 7.672199999999999853e-02 6.931600000000000261e-02 -1.459999999999999926e-03 5.719300000000000078e-02 -6.928800000000000237e-02 -2.850000000000000103e-03 5.703300000000000036e-02 -1.874419999999999975e-01 2.147729999999999917e-01 5.657600000000000129e-02 1.784820000000000018e-01 2.308949999999999891e-01 7.629199999999999871e-02 6.945199999999999985e-02 1.340000000000000045e-03 5.659000000000000141e-02 -6.925199999999999412e-02 2.890999999999999907e-03 5.683900000000000063e-02 -4.595500000000000279e-02 -7.374999999999999611e-03 -7.562099999999999378e-02 4.519700000000000106e-02 -5.573999999999999962e-03 -7.683700000000000252e-02 -3.644999999999999803e-03 -3.575000000000000053e-03 -6.784600000000000353e-02 3.950000000000000386e-03 -3.144000000000000093e-03 -6.701400000000000412e-02 -4.601999999999999841e-02 7.341999999999999568e-03 -7.632500000000000395e-02 4.525599999999999762e-02 5.521999999999999999e-03 -7.708299999999999874e-02 -3.641000000000000139e-03 3.565000000000000027e-03 -6.847599999999999520e-02 3.948000000000000120e-03 3.144999999999999792e-03 -6.721799999999999997e-02 5.063999999999999925e-03 -7.519999999999999558e-04 -7.801600000000000201e-02 2.636799999999999908e-02 -1.766999999999999908e-03 3.853299999999999781e-02 -1.445300000000000057e-02 5.099999999999999960e-05 -2.997999999999999797e-03 1.541000000000000052e-03 3.785000000000000170e-03 -1.265000000000000065e-03 2.334000000000000137e-03 -3.256000000000000213e-03 -1.812000000000000026e-03 1.417999999999999990e-03 8.500000000000000611e-05 -9.579999999999999757e-04
4.400699999999999751e-02 3.990300000000000097e-02 1.373599999999999995e-02 -4.423300000000000148e-02 3.928100000000000341e-02 1.373300000000000042e-02 2.707400000000000084e-02 2.628499999999999934e-02 6.900900000000000090e-02 -2.697499999999999898e-02 2.683699999999999974e-02 6.995899999999999341e-02 4.399600000000000039e-02 -3.989600000000000091e-02 1.440899999999999993e-02 -4.422700000000000242e-02 -3.929200000000000054e-02 1.392299999999999961e-02 2.708800000000000097e-02 -2.628600000000000034e-02 6.968900000000000095e-02 -2.698300000000000004e-02 -2.681700000000000056e-02 7.015899999999999914e-02 2.881999999999999840e-02 5.843000000000000103e-03 8.296299999999999508e-02 -2.906699999999999909e-02 4.799999999999999580e-03 8.417399999999999882e-02 4.363600000000000118e-02 2.457200000000000009e-02 5.615900000000000059e-02 -4.334299999999999958e-02 2.585099999999999898e-02 5.588900000000000118e-02 2.882399999999999893e-02 -5.845999999999999634e-03 8.360499999999999876e-02 -2.906100000000000003e-02 -4.814999999999999836e-03 8.437400000000000455e-02 4.362599999999999811e-02 -2.458700000000000122e-02 5.681499999999999745e-02 -4.333599999999999952e-02 -2.586000000000000104e-02 5.607899999999999691e-02 -2.096999999999999906e-03 -1.699999999999999987e-05 -6.194359999999999866e-01 -9.447800000000000642e-02 -2.599999999999999840e-05 -8.150899999999999812e-02 3.069000000000000113e-03 -3.899999999999999929e-05 -4.201520000000000254e-01 9.270799999999999874e-02 -1.999999999999999909e-06 -8.408699999999999508e-02 1.110000000000000011e-04 -3.350899999999999712e-02 -1.025000000000000086e-03 -1.201799999999999917e-02 -1.162910000000000055e-01 1.305959999999999899e-01 1.002000000000000069e-03 7.734800000000000009e-02 -6.195699999999999819e-02 1.051200000000000051e-02 -1.153060000000000057e-01 1.294140000000000013e-01 7.799999999999999859e-05 9.999999999999999547e-07 -3.449900000000000189e-02 1.589899999999999994e-02 -2.000000000000000164e-05 2.009999999999999981e-02 -5.220000000000000031e-04 -3.000000000000000076e-05 3.020000000000000115e-02 -1.562600000000000100e-02 -3.499999999999999693e-05 1.842600000000000141e-02 1.250000000000000026e-04 3.352900000000000325e-02 -1.000000000000000021e-03 -1.205099999999999921e-02 1.163470000000000060e-01 1.306049999999999989e-01 9.770000000000000039e-04 -7.728899999999999659e-02 -6.193200000000000094e-02 1.051700000000000031e-02 1.153310000000000030e-01 1.294009999999999883e-01 -1.880290000000000017e-01 -2.150259999999999949e-01 5.682000000000000245e-02 1.786439999999999972e-01 -2.307130000000000014e-01 7.664500000000000479e-02 6.928800000000000237e-02 -1.490000000000000005e-03 5.719400000000000178e-02 -6.924700000000000299e-02 -2.874999999999999951e-03 5.706599999999999867e-02 -1.875149999999999872e-01 2.148599999999999954e-01 5.650299999999999767e-02 1.785559999999999925e-01 2.309779999999999889e-01 7.624000000000000221e-02 6.942900000000000460e-02 1.355000000000000085e-03 5.660500000000000254e-02 -6.919999999999999762e-02 2.913999999999999924e-03 5.686900000000000288e-02 -4.595599999999999685e-02 -7.367000000000000284e-03 -7.562299999999999578e-02 4.518900000000000000e-02 -5.575000000000000094e-03 -7.682200000000000140e-02 -3.660000000000000059e-03 -3.592000000000000141e-03 -6.778099999999999403e-02 3.976999999999999633e-03 -3.158000000000000217e-03 -6.696699999999999875e-02 -4.601899999999999741e-02 7.333000000000000108e-03 -7.632300000000000195e-02 4.525300000000000156e-02 5.531999999999999591e-03 -7.707899999999999474e-02 -3.673000000000000050e-03 3.602000000000000167e-03 -6.842800000000000271e-02 3.981000000000000164e-03 3.158000000000000217e-03 -6.716800000000000548e-02 5.348000000000000323e-03 -7.370000000000000249e-04 -7.575900000000000689e-02 1.814199999999999841e-02 -1.332000000000000068e-03 3.377399999999999847e-02 -6.302000000000000310e-03 5.899999999999999754e-05 -4.949999999999999973e-04 1.585000000000000037e-03 2.789999999999999945e-03 -1.396000000000000105e-03 2.092000000000000109e-03 -2.733000000000000186e-03 -1.748999999999999904e-03 1.400999999999999902e-03 7.700000000000000139e-05 -8.739999999999999939e-04
4.397500000000000020e-02 3.989100000000000285e-02 1.414499999999999959e-02 -4.418099999999999805e-02 3.929699999999999860e-02 1.414299999999999932e-02 2.708999999999999950e-02 2.633699999999999930e-02 6.956500000000000183e-02 -2.700100000000000069e-02 2.687900000000000011e-02 7.050900000000000223e-02 4.397299999999999820e-02 -3.985299999999999954e-02 1.483300000000000070e-02 -4.420899999999999830e-02 -3.928799999999999654e-02 1.435699999999999997e-02 2.707700000000000037e-02 -2.636600000000000055e-02 7.024600000000000288e-02 -2.696899999999999992e-02 -2.688199999999999965e-02 7.073500000000000620e-02 2.890500000000000014e-02 5.812999999999999591e-03 8.356399999999999939e-02 -2.913400000000000017e-02 4.812000000000000305e-03 8.486399999999999499e-02 4.359899999999999887e-02 2.456600000000000103e-02 5.666000000000000203e-02 -4.331200000000000327e-02 2.578300000000000036e-02 5.643700000000000105e-02 2.890399999999999914e-02 -5.852999999999999696e-03 8.419599999999999307e-02 -2.910000000000000087e-02 -4.851000000000000277e-03 8.501899999999999735e-02 4.359899999999999887e-02 -2.454999999999999891e-02 5.733499999999999708e-02 -4.335200000000000164e-02 -2.579100000000000142e-02 5.663499999999999784e-02 -2.092000000000000109e-03 -2.199999999999999943e-05 -6.198939999999999451e-01 -9.432400000000000506e-02 -2.300000000000000002e-05 -8.178299999999999459e-02 3.083999999999999936e-03 -6.499999999999999431e-05 -4.203160000000000229e-01 9.252299999999999414e-02 -1.500000000000000038e-05 -8.430999999999999606e-02 1.060000000000000016e-04 -3.335799999999999876e-02 -1.391000000000000092e-03 -1.193699999999999969e-02 -1.161660000000000054e-01 1.303050000000000042e-01 1.046000000000000055e-03 7.732600000000000584e-02 -6.194999999999999812e-02 1.039600000000000073e-02 -1.152419999999999972e-01 1.291950000000000043e-01 1.160000000000000007e-04 -2.000000000000000164e-05 -3.484600000000000197e-02 1.590300000000000047e-02 -4.699999999999999724e-05 1.995699999999999905e-02 -5.789999999999999791e-04 -1.099999999999999971e-05 3.019300000000000109e-02 -1.562699999999999853e-02 -5.099999999999999960e-05 1.832400000000000001e-02 9.899999999999999404e-05 3.339600000000000207e-02 -1.332000000000000068e-03 -1.194199999999999949e-02 1.162360000000000060e-01 1.303370000000000084e-01 1.041000000000000042e-03 -7.726299999999999835e-02 -6.196200000000000319e-02 1.038599999999999940e-02 1.153129999999999988e-01 1.291910000000000003e-01 -1.880819999999999992e-01 -2.150009999999999977e-01 5.649599999999999761e-02 1.786550000000000082e-01 -2.306789999999999952e-01 7.637599999999999945e-02 6.944599999999999385e-02 -1.479999999999999979e-03 5.677499999999999908e-02 -6.939199999999999535e-02 -2.897999999999999968e-03 5.655000000000000304e-02 -1.876130000000000020e-01 2.148569999999999924e-01 5.618399999999999783e-02 1.786179999999999990e-01 2.309819999999999929e-01 7.597299999999999887e-02 6.959899999999999420e-02 1.358999999999999965e-03 5.617599999999999677e-02 -6.935800000000000298e-02 2.948999999999999799e-03 5.639099999999999668e-02 -4.605499999999999872e-02 -7.366000000000000152e-03 -7.613300000000000622e-02 4.528100000000000180e-02 -5.517000000000000202e-03 -7.735599999999999421e-02 -3.557999999999999965e-03 -3.565000000000000027e-03 -6.827400000000000135e-02 3.886999999999999830e-03 -3.152999999999999987e-03 -6.743599999999999595e-02 -4.611900000000000027e-02 7.315999999999999587e-03 -7.683500000000000052e-02 4.536099999999999854e-02 5.466999999999999638e-03 -7.756899999999999906e-02 -3.572000000000000088e-03 3.592000000000000141e-03 -6.888600000000000279e-02 3.860999999999999849e-03 3.137000000000000031e-03 -6.764000000000000568e-02 5.957999999999999755e-03 -9.430000000000000448e-04 -7.496800000000000685e-02 6.130000000000000032e-03 -7.389999999999999651e-04 2.707999999999999990e-02 4.517000000000000182e-03 1.279999999999999942e-04 2.801000000000000104e-03 1.863999999999999988e-03 8.249999999999999955e-04 -1.936000000000000004e-03 1.964000000000000034e-03 -1.417000000000000074e-03 -1.984999999999999785e-03 1.389000000000000044e-03 7.100000000000000462e-05 -9.399999999999999719e-04
4.392100000000000171e-02 3.978799999999999698e-02 1.356699999999999920e-02 -4.408900000000000319e-02 3.928899999999999754e-02 1.358200000000000032e-02 2.708400000000000044e-02 2.658200000000000146e-02 6.892500000000000016e-02 -2.703799999999999953e-02 2.698899999999999910e-02 6.985900000000000443e-02 4.394200000000000189e-02 -3.970800000000000024e-02 1.429599999999999968e-02 -4.416300000000000087e-02 -3.923800000000000204e-02 1.387599999999999945e-02 2.700299999999999923e-02 -2.656599999999999934e-02 6.959600000000000508e-02 -2.689100000000000171e-02 -2.706100000000000172e-02 7.009700000000000653e-02 2.917399999999999854e-02 5.677999999999999887e-03 8.303800000000000070e-02 -2.926000000000000129e-02 4.806000000000000376e-03 8.484800000000000675e-02 4.333499999999999852e-02 2.440499999999999961e-02 5.597200000000000092e-02 -4.322999999999999760e-02 2.558500000000000010e-02 5.564700000000000202e-02 2.914399999999999977e-02 -5.784000000000000079e-03 8.368899999999999950e-02 -2.930800000000000072e-02 -4.886999999999999851e-03 8.484600000000000475e-02 4.343600000000000239e-02 -2.443199999999999886e-02 5.648100000000000342e-02 -4.323300000000000060e-02 -2.553100000000000161e-02 5.586100000000000093e-02 -2.096000000000000207e-03 -2.500000000000000120e-05 -6.216030000000000166e-01 -9.440999999999999392e-02 1.160000000000000007e-04 -8.327400000000000080e-02 3.177999999999999835e-03 -8.700000000000000051e-05 -4.218790000000000040e-01 9.242000000000000215e-02 -5.300000000000000078e-05 -8.558899999999999841e-02 2.120000000000000031e-04 -3.327399999999999802e-02 -2.913999999999999924e-03 -1.213000000000000016e-02 -1.159889999999999949e-01 1.287899999999999878e-01 1.013999999999999927e-03 7.714699999999999336e-02 -6.313199999999999368e-02 1.048699999999999979e-02 -1.154140000000000027e-01 1.276899999999999979e-01 4.409999999999999858e-04 -3.199999999999999855e-05 -3.643400000000000111e-02 1.562699999999999853e-02 -2.110000000000000059e-04 1.877900000000000055e-02 -7.190000000000000210e-04 1.999999999999999909e-06 2.909300000000000080e-02 -1.552800000000000014e-02 9.999999999999999547e-07 1.714099999999999999e-02 4.600000000000000004e-05 3.332600000000000146e-02 -2.771000000000000026e-03 -1.210800000000000071e-02 1.160339999999999983e-01 1.287590000000000123e-01 1.237000000000000035e-03 -7.709399999999999586e-02 -6.315300000000000080e-02 1.042799999999999977e-02 1.154540000000000011e-01 1.277270000000000072e-01 -1.885910000000000086e-01 -2.155189999999999884e-01 5.602499999999999841e-02 1.789880000000000082e-01 -2.311580000000000024e-01 7.604700000000000348e-02 6.948799999999999422e-02 -1.513000000000000022e-03 5.669199999999999934e-02 -6.920999999999999375e-02 -3.004000000000000160e-03 5.632899999999999713e-02 -1.880779999999999952e-01 2.152380000000000126e-01 5.572699999999999876e-02 1.790390000000000037e-01 2.314279999999999948e-01 7.553999999999999604e-02 6.953499999999999959e-02 1.446000000000000020e-03 5.599200000000000010e-02 -6.921099999999999475e-02 3.017999999999999849e-03 5.623700000000000226e-02 -4.588600000000000317e-02 -7.510000000000000182e-03 -7.602399999999999436e-02 4.534900000000000042e-02 -5.499999999999999681e-03 -7.746999999999999720e-02 -3.642999999999999971e-03 -3.550000000000000204e-03 -6.819699999999999374e-02 3.772000000000000179e-03 -3.236000000000000161e-03 -6.716900000000000648e-02 -4.594499999999999973e-02 7.577000000000000401e-03 -7.681100000000000427e-02 4.531099999999999711e-02 5.427999999999999665e-03 -7.757500000000000506e-02 -3.569999999999999823e-03 3.498999999999999940e-03 -6.875399999999999567e-02 3.781000000000000073e-03 3.278000000000000098e-03 -6.736699999999999633e-02 6.819999999999999674e-03 -8.580000000000000387e-04 -6.018199999999999938e-02 -4.862000000000000002e-03 -1.200000000000000030e-04 1.697900000000000104e-02 1.400500000000000009e-02 1.299999999999999886e-04 5.362999999999999712e-03 2.295999999999999864e-03 -1.551999999999999994e-03 -2.370999999999999844e-03 2.030000000000000120e-03 3.139999999999999888e-04 -2.148000000000000170e-03 1.361000000000000014e-03 9.899999999999999404e-05 -7.140000000000000079e-04
4.411600000000000243e-02 3.994000000000000328e-02 1.362299999999999969e-02 -4.416599999999999693e-02 3.930299999999999766e-02 1.371200000000000023e-02 2.699800000000000116e-02 2.638499999999999873e-02 6.895199999999999940e-02 -2.705300000000000066e-02 2.688400000000000165e-02 6.980100000000000193e-02 4.408499999999999919e-02 -3.988400000000000278e-02 1.430999999999999980e-02 -4.422199999999999742e-02 -3.930700000000000166e-02 1.388400000000000051e-02 2.704499999999999960e-02 -2.633399999999999977e-02 6.962000000000000133e-02 -2.702099999999999988e-02 -2.685099999999999987e-02 7.002800000000000691e-02 2.890200000000000061e-02 5.875000000000000014e-03 8.294799999999999396e-02 -2.908900000000000027e-02 4.802999999999999978e-03 8.411799999999999833e-02 4.361899999999999805e-02 2.460499999999999840e-02 5.613499999999999740e-02 -4.342700000000000032e-02 2.591100000000000000e-02 5.593999999999999667e-02 2.890600000000000114e-02 -5.923000000000000313e-03 8.355100000000000027e-02 -2.912700000000000011e-02 -4.839000000000000419e-03 8.437500000000000555e-02 4.360100000000000087e-02 -2.466700000000000143e-02 5.679800000000000126e-02 -4.335200000000000164e-02 -2.594399999999999831e-02 5.609600000000000003e-02 -2.062000000000000031e-03 1.999999999999999909e-06 -6.205760000000000165e-01 -9.449299999999999367e-02 -1.599999999999999928e-05 -8.194300000000000195e-02 2.991999999999999868e-03 -2.699999999999999899e-05 -4.208129999999999926e-01 9.273299999999999599e-02 -6.000000000000000152e-06 -8.456199999999999828e-02 1.959999999999999937e-04 -3.349300000000000194e-02 -1.258999999999999920e-03 -1.217799999999999959e-02 -1.163060000000000066e-01 1.302030000000000132e-01 9.309999999999999699e-04 7.729199999999999959e-02 -6.246899999999999675e-02 1.061800000000000070e-02 -1.152939999999999937e-01 1.288940000000000086e-01 1.310000000000000129e-04 5.000000000000000409e-06 -3.472999999999999698e-02 1.580700000000000160e-02 -4.500000000000000283e-05 1.977999999999999897e-02 -5.140000000000000254e-04 -6.200000000000000270e-05 2.951099999999999904e-02 -1.563900000000000012e-02 -4.899999999999999842e-05 1.790200000000000125e-02 2.220000000000000022e-04 3.350299999999999806e-02 -1.283999999999999985e-03 -1.221099999999999963e-02 1.163470000000000060e-01 1.301209999999999867e-01 9.269999999999999811e-04 -7.719499999999999973e-02 -6.251500000000000112e-02 1.064200000000000042e-02 1.153150000000000008e-01 1.287929999999999908e-01 -1.884570000000000134e-01 -2.154719999999999969e-01 5.609100000000000197e-02 1.791240000000000054e-01 -2.311570000000000014e-01 7.590099999999999625e-02 6.923100000000000087e-02 -1.449999999999999900e-03 5.653699999999999698e-02 -6.915599999999999525e-02 -2.892000000000000039e-03 5.663699999999999984e-02 -1.878499999999999892e-01 2.152350000000000096e-01 5.570399999999999657e-02 1.789679999999999882e-01 2.313560000000000061e-01 7.546500000000000430e-02 6.929699999999999749e-02 1.297999999999999892e-03 5.605700000000000266e-02 -6.910399999999999876e-02 2.938000000000000073e-03 5.639600000000000168e-02 -4.581099999999999756e-02 -7.445000000000000229e-03 -7.606400000000000661e-02 4.519900000000000306e-02 -5.594000000000000014e-03 -7.740199999999999858e-02 -3.774000000000000011e-03 -3.612999999999999892e-03 -6.817800000000000249e-02 3.988000000000000225e-03 -3.139999999999999996e-03 -6.736499999999999433e-02 -4.587800000000000211e-02 7.445000000000000229e-03 -7.678899999999999615e-02 4.523800000000000043e-02 5.532999999999999724e-03 -7.761600000000000443e-02 -3.776999999999999975e-03 3.635000000000000210e-03 -6.883499999999999341e-02 4.007000000000000145e-03 3.131999999999999802e-03 -6.751600000000000656e-02 7.407999999999999655e-03 -7.330000000000000361e-04 -5.367899999999999755e-02 -8.699999999999999400e-03 4.339999999999999782e-04 8.833999999999999839e-03 2.042100000000000165e-02 1.090000000000000067e-04 6.883000000000000229e-03 1.554000000000000043e-03 -1.345999999999999974e-03 -1.484000000000000076e-03 1.150999999999999896e-03 -1.200000000000000030e-04 -1.149000000000000065e-03 1.258999999999999920e-03 5.500000000000000196e-05 -6.790000000000000245e-04
4.411999999999999950e-02 3.993700000000000028e-02 1.283199999999999966e-02 -4.425899999999999973e-02 3.928199999999999747e-02 1.325699999999999969e-02 2.711600000000000121e-02 2.627499999999999974e-02 6.862400000000000444e-02 -2.712300000000000127e-02 2.686099999999999946e-02 6.909700000000000564e-02 4.409899999999999931e-02 -3.998499999999999971e-02 1.356699999999999920e-02 -4.420500000000000124e-02 -3.925200000000000217e-02 1.341099999999999931e-02 2.717599999999999877e-02 -2.630299999999999999e-02 6.919599999999999362e-02 -2.719200000000000089e-02 -2.680799999999999850e-02 6.948000000000000009e-02 2.885400000000000117e-02 5.928000000000000110e-03 8.231099999999999528e-02 -2.908000000000000168e-02 4.836000000000000021e-03 8.364099999999999313e-02 4.365000000000000130e-02 2.451300000000000007e-02 5.552699999999999997e-02 -4.343500000000000139e-02 2.593700000000000172e-02 5.534599999999999936e-02 2.886899999999999883e-02 -5.911999999999999721e-03 8.281099999999999572e-02 -2.903000000000000025e-02 -4.878000000000000391e-03 8.388500000000000123e-02 4.360800000000000093e-02 -2.453899999999999831e-02 5.625399999999999845e-02 -4.347700000000000176e-02 -2.599999999999999881e-02 5.535600000000000243e-02 -1.998999999999999909e-03 1.500000000000000038e-05 -6.210430000000000117e-01 -9.442300000000000693e-02 -5.399999999999999798e-05 -8.209500000000000131e-02 2.827999999999999785e-03 -6.999999999999999895e-06 -4.213600000000000123e-01 9.298800000000000121e-02 5.399999999999999798e-05 -8.463900000000000590e-02 2.320000000000000014e-04 -3.338399999999999701e-02 -1.492999999999999969e-03 -1.203899999999999935e-02 -1.164889999999999953e-01 1.301289999999999947e-01 9.489999999999999738e-04 7.755199999999999594e-02 -6.260599999999999499e-02 1.051799999999999957e-02 -1.152470000000000022e-01 1.287429999999999963e-01 -1.399999999999999979e-05 1.999999999999999909e-06 -3.499599999999999933e-02 1.599300000000000027e-02 4.500000000000000283e-05 1.946000000000000160e-02 -4.020000000000000136e-04 -7.399999999999999623e-05 2.924399999999999916e-02 -1.556899999999999951e-02 -1.450000000000000009e-04 1.801200000000000023e-02 2.950000000000000148e-04 3.341299999999999826e-02 -1.551000000000000078e-03 -1.212300000000000010e-02 1.165920000000000012e-01 1.301740000000000119e-01 7.439999999999999782e-04 -7.753699999999999481e-02 -6.270100000000000673e-02 1.061100000000000064e-02 1.152559999999999973e-01 1.286760000000000126e-01 -1.885090000000000099e-01 -2.157560000000000033e-01 5.696999999999999981e-02 1.795430000000000081e-01 -2.313699999999999923e-01 7.645799999999999819e-02 6.888700000000000379e-02 -1.828999999999999897e-03 5.765100000000000086e-02 -6.923600000000000587e-02 -3.183000000000000065e-03 5.805600000000000344e-02 -1.879750000000000032e-01 2.156830000000000136e-01 5.663200000000000178e-02 1.793470000000000064e-01 2.316169999999999896e-01 7.614500000000000435e-02 6.915100000000000413e-02 1.533000000000000074e-03 5.713200000000000223e-02 -6.912899999999999601e-02 3.311999999999999840e-03 5.776300000000000184e-02 -4.605200000000000266e-02 -7.137000000000000115e-03 -7.480100000000000637e-02 4.514599999999999863e-02 -5.555000000000000042e-03 -7.616699999999999859e-02 -3.534999999999999948e-03 -3.658999999999999926e-03 -6.683699999999999364e-02 4.002000000000000349e-03 -2.987000000000000072e-03 -6.648400000000000143e-02 -4.611500000000000321e-02 7.061999999999999701e-03 -7.542400000000000493e-02 4.530800000000000105e-02 5.518000000000000335e-03 -7.643800000000000594e-02 -3.632999999999999945e-03 3.739999999999999835e-03 -6.761799999999999755e-02 3.980000000000000031e-03 2.954000000000000029e-03 -6.647000000000000131e-02 7.978000000000000716e-03 -8.859999999999999603e-04 -5.052199999999999747e-02 -6.621000000000000149e-03 2.290000000000000098e-04 1.242000000000000048e-03 1.923800000000000163e-02 9.100000000000000287e-05 5.679000000000000020e-03 7.799999999999999859e-04 -1.577000000000000060e-03 -8.300000000000000086e-04 4.850000000000000253e-04 2.539999999999999940e-04 -5.299999999999999807e-04 1.175000000000000046e-03 6.899999999999999667e-05 -1.710000000000000094e-04