-2.566405039756854833e+01 -2.676018714528265608e-03 4.132474801779714713e-02 -2.676018714528265608e-03 -2.571031042600248639e+01 -4.167570129183364525e-04 4.132474801779714713e-02 -4.167570129183364525e-04 -5.315713765193753382e+00
-2.565825966854694684e+01 -2.456672918255456937e-03 4.211439288437925782e-02 -2.456672918255456937e-03 -2.570802922972124449e+01 -3.948224332910556180e-04 4.211439288437925782e-02 -3.948224332910556180e-04 -5.312006821236743725e+00
-2.552419551786500662e+01 -2.368934599746333382e-03 4.448332748412559684e-02 -2.368934599746333382e-03 -2.558383563987158382e+01 -7.019065480729877893e-04 4.448332748412559684e-02 -7.019065480729877893e-04 -5.185773315481742252e+00
-2.617935947675226060e+01 -1.732831790555188368e-03 4.897991630771816873e-02 -1.732831790555188368e-03 -2.625292805682216013e+01 -8.115794462093920162e-04 4.897991630771816873e-02 -8.115794462093920162e-04 -5.876032601772643638e+00
-2.496602627008958919e+01 -1.162532720245885911e-03 5.248944904808311440e-02 -1.162532720245885911e-03 -2.505240464466182004e+01 -8.115794462093920162e-04 5.248944904808311440e-02 -8.115794462093920162e-04 -4.660856890421284149e+00
-2.696060339933712413e+01 -1.469616835027818137e-03 5.176560792038284453e-02 -1.469616835027818137e-03 -2.705145642815331541e+01 -8.554486054639537937e-04 5.176560792038284453e-02 -8.554486054639537937e-04 -6.717552749173274051e+00
-2.341588759325002655e+01 -1.601224312791503035e-03 4.838768265778158745e-02 -1.601224312791503035e-03 -2.350961405199739573e+01 -1.140598140618604914e-03 4.838768265778158745e-02 -1.140598140618604914e-03 -3.073561035693104238e+00
-2.651241413381289291e+01 -1.513485994282379697e-03 4.590907515989885168e-02 -1.513485994282379697e-03 -2.660135885420151425e+01 -1.294140198009571243e-03 4.590907515989885168e-02 -1.294140198009571243e-03 -6.266753268673397770e+00
-2.485573920372361911e+01 -1.908308427573435261e-03 4.152215923444267653e-02 -1.908308427573435261e-03 -2.493358502682084321e+01 -9.870560832276390178e-04 4.152215923444267653e-02 -9.870560832276390178e-04 -4.608850002125000955e+00
-2.600824782107983779e+01 -2.368934599746333382e-03 3.529273862029491671e-02 -2.368934599746333382e-03 -2.607459992445236452e+01 -6.361028091911451231e-04 3.529273862029491671e-02 -6.361028091911451231e-04 -5.794874657151704689e+00
-2.516135370167052798e+01 -2.785691612664670160e-03 2.954587875794732407e-02 -2.785691612664670160e-03 -2.521741848719785750e+01 -3.728878536637747292e-04 2.954587875794732407e-02 -3.728878536637747292e-04 -4.921461630973007928e+00
-2.829343619580921754e+01 -2.851495351546512284e-03 2.621182265460063679e-02 -2.851495351546512284e-03 -2.834471924297779921e+01 -3.070841147819321172e-04 2.621182265460063679e-02 -3.070841147819321172e-04 -8.136698116478719101e+00
-2.427098524543994174e+01 -2.390869179373614380e-03 2.754983201186476591e-02 -2.390869179373614380e-03 -2.432819062910789043e+01 -1.096728981364043353e-03 2.754983201186476591e-02 -1.096728981364043353e-03 -4.084021315383051132e+00
-2.672581565900670597e+01 -2.281196281237209827e-03 3.224383205210287068e-02 -2.281196281237209827e-03 -2.679583083717698955e+01 -8.554486054639537937e-04 3.224383205210287068e-02 -8.554486054639537937e-04 -6.581843505019287832e+00
-2.495878785881258821e+01 -1.754766370182469365e-03 3.779328069780493043e-02 -1.754766370182469365e-03 -2.504996990632319509e+01 -1.184467299873166691e-03 3.779328069780493043e-02 -1.184467299873166691e-03 -4.831332443284511058e+00
-2.565575912646943735e+01 -1.074794401736762356e-03 4.402270131195269720e-02 -1.074794401736762356e-03 -2.576543202460583970e+01 -1.403813096145975579e-03 4.402270131195269720e-02 -1.403813096145975579e-03 -5.598976926500458973e+00
-2.505876567275373290e+01 -3.070841147819321172e-04 4.902378546697273159e-02 -3.070841147819321172e-04 -2.518177479530352514e+01 -1.842504688691592703e-03 4.902378546697273159e-02 -1.842504688691592703e-03 -5.059605613465622653e+00
-2.556806467711956898e+01 -4.606261721728981758e-04 4.924313126324554590e-02 -4.606261721728981758e-04 -2.568418634166639336e+01 -1.754766370182469365e-03 4.924313126324554590e-02 -1.754766370182469365e-03 -5.539775496086427609e+00
-2.560719596717463986e+01 -5.483644906820216765e-04 4.507556113406217813e-02 -5.483644906820216765e-04 -2.570094436050163722e+01 -1.579289733164222472e-03 4.507556113406217813e-02 -1.579289733164222472e-03 -5.581736346913416469e+00
-2.583042418404147611e+01 -1.162532720245885911e-03 3.671848629606817155e-02 -1.162532720245885911e-03 -2.588905531538519611e+01 -1.250271038755009249e-03 3.671848629606817155e-02 -1.250271038755009249e-03 -5.819002694741714166e+00
-2.532325283389948822e+01 -2.610214975646423050e-03 2.575119648242773715e-02 -2.610214975646423050e-03 -2.533599682466293856e+01 1.118663560991324133e-03 2.575119648242773715e-02 1.118663560991324133e-03 -5.291059297692689789e+00
-2.640333346932642300e+01 -3.399859842228534178e-03 1.669221509636073866e-02 -3.399859842228534178e-03 -2.637795516069766322e+01 1.732831790555188368e-03 1.669221509636073866e-02 1.732831790555188368e-03 -6.348986007696074019e+00
-2.512193726208030498e+01 -3.992093492165117198e-03 1.416973843922343830e-02 -3.992093492165117198e-03 -2.507175094389308256e+01 2.412803759000895377e-03 1.416973843922343830e-02 2.412803759000895377e-03 -4.967282967814397487e+00
-2.598139989561605034e+01 -3.948224332910556071e-03 2.112300018107147320e-02 -3.948224332910556071e-03 -2.594310211958681478e+01 2.303130860864490825e-03 2.112300018107147320e-02 2.303130860864490825e-03 -5.784346058930609935e+00
-2.554821388255687964e+01 -1.688962631300626590e-03 3.603851432762246454e-02 -1.688962631300626590e-03 -2.555010025640482496e+01 1.030925242482200578e-03 3.603851432762246454e-02 1.030925242482200578e-03 -5.368641905834382833e+00
-2.547010484450413159e+01 -4.606261721728981758e-04 5.707377619018481896e-02 -4.606261721728981758e-04 -2.554060258342621381e+01 1.316074777636851969e-04 5.707377619018481896e-02 1.316074777636851969e-04 -5.266580306828645419e+00
-2.533928701160703056e+01 2.917299090428355276e-03 8.085086050615726549e-02 2.917299090428355276e-03 -2.549129364842408663e+01 -2.303130860864490825e-03 8.085086050615726549e-02 -2.303130860864490825e-03 -5.086694819305314752e+00
-2.517444864570801144e+01 5.549448645702058890e-03 9.822304757096371464e-02 5.549448645702058890e-03 -2.538892496530356624e+01 5.044953314274598991e-04 9.822304757096371464e-02 5.044953314274598991e-04 -4.827121003996072801e+00
-2.511261506573870861e+01 5.439775747565654337e-03 8.887891664974206796e-02 5.439775747565654337e-03 -2.534123918919385687e+01 2.061850484964401157e-03 8.887891664974206796e-02 2.061850484964401157e-03 -4.591258469263921782e+00
-2.492331964355527418e+01 3.224383205210287068e-03 4.470267328039840421e-02 3.224383205210287068e-03 -2.509052694405403727e+01 5.659121543838462574e-03 4.470267328039840421e-02 5.659121543838462574e-03 -4.041051473893208623e+00
-2.494312656895871072e+01 -2.763757033037389163e-03 -4.090799100487881729e-02 -2.763757033037389163e-03 -2.497585296176261593e+01 1.311687861711395738e-02 -4.090799100487881729e-02 1.311687861711395738e-02 -3.508063123529910676e+00
-2.481669565198706096e+01 -1.254657954680465579e-02 -1.583676649089678645e-01 -1.254657954680465579e-02 -2.467133519279707343e+01 2.309711234752674994e-02 -1.583676649089678645e-01 2.309711234752674994e-02 -2.712232705492906515e+00
-2.458458393037117773e+01 -2.665051424714625153e-02 -2.982006100328833398e-01 -2.665051424714625153e-02 -2.425813158177835405e+01 3.217802831322102985e-02 -2.982006100328833398e-01 3.217802831322102985e-02 -1.646519219721838345e+00
-2.399265736454937681e+01 -4.171957045108820594e-02 -4.578843497194880485e-01 -4.171957045108820594e-02 -2.355874751036250458e+01 5.347650513131074757e-02 -4.578843497194880485e-01 5.347650513131074757e-02 -1.710019827742816356e-01
-2.346451655628370503e+01 -5.593317804956620537e-02 -6.211653604649668425e-01 -5.593317804956620537e-02 -2.299226505690835154e+01 7.856966422492005220e-02 -6.211653604649668425e-01 7.856966422492005220e-02 1.058036382901519801e+00
-2.272492640041105005e+01 -6.209679492483212437e-02 -7.850386048603821276e-01 -6.209679492483212437e-02 -2.227103414418372651e+01 1.017325803113286464e-01 -7.850386048603821276e-01 1.017325803113286464e-01 2.176546401835453004e+00
-2.199669835678532692e+01 -6.964229031661675617e-02 -9.297629612411812960e-01 -6.964229031661675617e-02 -2.157902009152264000e+01 1.221098047850725787e-01 -9.297629612411812960e-01 1.221098047850725787e-01 2.981633212475169881e+00
-2.122245156510156505e+01 -7.312988847735441000e-02 -1.061545915641884719e+00 -7.312988847735441000e-02 -2.081203364569551084e+01 1.425747675773256229e-01 -1.061545915641884719e+00 1.425747675773256229e-01 3.647457377061280592e+00
-2.062681805532275447e+01 -8.646611289074115914e-02 -1.183589916688075450e+00 -8.646611289074115914e-02 -2.016259461209098092e+01 1.605391882920686741e-01 -1.183589916688075450e+00 1.605391882920686741e-01 4.065815614292408675e+00
-2.042986746484939786e+01 -1.046937485610115737e-01 -1.298110356922108855e+00 -1.046937485610115737e-01 -1.985307575897042298e+01 1.734147865332825444e-01 -1.298110356922108855e+00 1.734147865332825444e-01 4.114378773587208826e+00
-2.013570281746793711e+01 -1.280979450233202532e-01 -1.399645526016792152e+00 -1.280979450233202532e-01 -1.940637804486084761e+01 1.840311230728864655e-01 -1.399645526016792152e+00 1.840311230728864655e-01 4.224490363316158792e+00
-2.029279827675851777e+01 -1.483435620193004900e-01 -1.490279209036716734e+00 -1.483435620193004900e-01 -1.941166427855102228e+01 1.911379268721254410e-01 -1.490279209036716734e+00 1.911379268721254410e-01 3.889198379133543160e+00
-2.015875606065620929e+01 -1.652331883323067407e-01 -1.554964284357567950e+00 -1.652331883323067407e-01 -1.915502969691183210e+01 1.952835624216815447e-01 -1.554964284357567950e+00 1.952835624216815447e-01 3.845745976891899343e+00
-2.021993160323669159e+01 -1.763759547829654439e-01 -1.596091621158719498e+00 -1.763759547829654439e-01 -1.914583910804800482e+01 1.986395531046555307e-01 -1.596091621158719498e+00 1.986395531046555307e-01 3.606680993534165491e+00
-2.041635576379899319e+01 -1.823421604415858266e-01 -1.616534649371345278e+00 -1.823421604415858266e-01 -1.932436465163444339e+01 2.005039923729743934e-01 -1.616534649371345278e+00 2.005039923729743934e-01 3.207405840578771539e+00
-2.040909541794236404e+01 -1.819254034286675037e-01 -1.617061079282400060e+00 -1.819254034286675037e-01 -1.934292130599912340e+01 1.980034502954643727e-01 -1.617061079282400060e+00 1.980034502954643727e-01 2.985208548954416674e+00
-2.044901635286401387e+01 -1.792932538733937875e-01 -1.607497602564905481e+00 -1.792932538733937875e-01 -1.943618713857431857e+01 1.957880577531090072e-01 -1.607497602564905481e+00 1.957880577531090072e-01 2.766279509694526517e+00
-2.044313788552390321e+01 -1.711116556724180116e-01 -1.585672695835761203e+00 -1.711116556724180116e-01 -1.950111349427107044e+01 1.901728053685250996e-01 -1.585672695835761203e+00 1.901728053685250996e-01 2.614908975686661030e+00
-2.054816065277932324e+01 -1.624694312992693568e-01 -1.562443976010470470e+00 -1.624694312992693568e-01 -1.967577855184310920e+01 1.837898426969863941e-01 -1.562443976010470470e+00 1.837898426969863941e-01 2.359634337984366503e+00
-2.059830310180728929e+01 -1.539149452446298139e-01 -1.537592097292761473e+00 -1.539149452446298139e-01 -1.978113033779294128e+01 1.771655996495475338e-01 -1.537592097292761473e+00 1.771655996495475338e-01 2.177072831746508008e+00
-2.073368332726686702e+01 -1.463694498528452237e-01 -1.514780134480389284e+00 -1.463694498528452237e-01 -1.995300970375231486e+01 1.696859079966447637e-01 -1.514780134480389284e+00 1.696859079966447637e-01 1.943030867123420879e+00
-2.085673631897590852e+01 -1.408200012071431362e-01 -1.491441741756962536e+00 -1.408200012071431362e-01 -2.009733923769982056e+01 1.612849639993962081e-01 -1.491441741756962536e+00 1.612849639993962081e-01 1.742175921476409872e+00
-2.086375538445664191e+01 -1.352924871410683683e-01 -1.461786190100878624e+00 -1.352924871410683683e-01 -2.011778226591244589e+01 1.527524125243839292e-01 -1.461786190100878624e+00 1.527524125243839292e-01 1.671020145165511117e+00
-2.112010481656066929e+01 -1.295675618583480571e-01 -1.431648077692994736e+00 -1.295675618583480571e-01 -2.038952977291483037e+01 1.454262629288721465e-01 -1.431648077692994736e+00 1.454262629288721465e-01 1.367686843499843929e+00
-2.122567594830677606e+01 -1.232504029256911715e-01 -1.393196759606371460e+00 -1.232504029256911715e-01 -2.051525878333840325e+01 1.365646927594506843e-01 -1.393196759606371460e+00 1.365646927594506843e-01 1.260492552861322224e+00
-2.139461608059609432e+01 -1.154197579987519123e-01 -1.350380460173919106e+00 -1.154197579987519123e-01 -2.071659628973721468e+01 1.278566646474201818e-01 -1.350380460173919106e+00 1.278566646474201818e-01 1.127415458262609027e+00
-2.142863661359800531e+01 -1.066459261478395620e-01 -1.300391553203346096e+00 -1.066459261478395620e-01 -2.079624074836387138e+01 1.203331038352628279e-01 -1.300391553203346096e+00 1.203331038352628279e-01 1.119211925482006098e+00
-2.157875687656711605e+01 -9.695084195258144022e-02 -1.247836300416381272e+00 -9.695084195258144022e-02 -2.099803888093485327e+01 1.126560009657145284e-01 -1.247836300416381272e+00 1.126560009657145284e-01 9.464551763375420590e-01
-2.171194364406396460e+01 -8.784799140725987887e-02 -1.190192225155887185e+00 -8.784799140725987887e-02 -2.118579888254437904e+01 1.058343467016301803e-01 -1.190192225155887185e+00 1.058343467016301803e-01 7.984186984330234882e-01
-2.188426170161588402e+01 -7.931543993224760003e-02 -1.130815318104837708e+00 -7.931543993224760003e-02 -2.141319466954039896e+01 1.011842158206466280e-01 -1.130815318104837708e+00 1.011842158206466280e-01 6.355105755412084889e-01
-2.197722045007629887e+01 -6.966422489624402026e-02 -1.072535140035152601e+00 -6.966422489624402026e-02 -2.154760977349637585e+01 9.521801016202623147e-02 -1.072535140035152601e+00 9.521801016202623147e-02 5.502508645299678536e-01
-2.215142488147616362e+01 -6.407090709128740458e-02 -1.015592971322731408e+00 -6.407090709128740458e-02 -2.175449672854088945e+01 8.975629983483329744e-02 -1.015592971322731408e+00 8.975629983483329744e-02 3.791172742779224669e-01
-2.224482232152912431e+01 -5.652541169950279359e-02 -9.578392231641008614e-01 -5.652541169950279359e-02 -2.186901716877492419e+01 8.190372032826674642e-02 -9.578392231641008614e-01 8.190372032826674642e-02 2.993631427531292521e-01
-2.241628493047558024e+01 -5.123917800932809713e-02 -9.005461011776432212e-01 -5.123917800932809713e-02 -2.206105441341176743e+01 7.525754270120064982e-02 -9.005461011776432212e-01 7.525754270120064982e-02 1.231626646071820597e-01
-2.257895177299149481e+01 -4.626002843393534764e-02 -8.423097922672125870e-01 -4.626002843393534764e-02 -2.223025776065661319e+01 6.876490713152552670e-02 -8.423097922672125870e-01 6.876490713152552670e-02 -5.091015931491889301e-02
-2.277305086811330526e+01 -4.165376671220636512e-02 -7.836128571846089352e-01 -4.165376671220636512e-02 -2.243736406149739793e+01 6.328126222470530082e-02 -7.836128571846089352e-01 6.328126222470530082e-02 -2.225921140576462287e-01
-2.285030445756058626e+01 -3.766167322004124879e-02 -7.234243706873502155e-01 -3.766167322004124879e-02 -2.253102471650588612e+01 5.882854256036728485e-02 -7.234243706873502155e-01 5.882854256036728485e-02 -2.476414039920009635e-01
-2.304626799195071385e+01 -3.290186944092129973e-02 -6.624023701642548501e-01 -3.290186944092129973e-02 -2.274714612957348692e+01 5.380552382571996556e-02 -6.624023701642548501e-01 5.380552382571996556e-02 -4.205078260346014618e-01
-2.319007109598716809e+01 -2.794465444515582125e-02 -5.996256032709770256e-01 -2.794465444515582125e-02 -2.291606432728317344e+01 4.647937423020815501e-02 -5.996256032709770256e-01 4.647937423020815501e-02 -5.850391078188352800e-01
-2.335229924691053682e+01 -2.456672918255457111e-02 -5.410164065068825412e-01 -2.456672918255457111e-02 -2.310862800183107169e+01 4.064477604935144706e-02 -5.410164065068825412e-01 4.064477604935144706e-02 -7.896229320024837905e-01
-2.344839464025765352e+01 -2.226359832169007638e-02 -4.844690602277524905e-01 -2.226359832169007638e-02 -2.323420347019725440e+01 3.810036481258686353e-02 -4.844690602277524905e-01 3.810036481258686353e-02 -9.517414100277167277e-01
-2.363558434279686793e+01 -1.822763567027039719e-02 -4.329666672628970092e-01 -1.822763567027039719e-02 -2.343966467756599670e+01 3.371344888713068838e-02 -4.329666672628970092e-01 3.371344888713068838e-02 -1.206511552398584097e+00
-2.371408820328290901e+01 -1.195434589686807103e-02 -3.840525546940606882e-01 -1.195434589686807103e-02 -2.352762234187139256e+01 2.748402827298292508e-02 -3.840525546940606882e-01 2.748402827298292508e-02 -1.347528964822372721e+00
-2.392542787799175841e+01 -9.190588863830683602e-03 -3.390208627192530799e-01 -9.190588863830683602e-03 -2.373446542775665336e+01 2.164943009212621366e-02 -3.390208627192530799e-01 2.164943009212621366e-02 -1.600873359517466898e+00
-2.404681384164913283e+01 -9.146719704576120741e-03 -2.980251333958651161e-01 -9.146719704576120741e-03 -2.384832783060186401e+01 1.601224312791503165e-02 -2.980251333958651161e-01 1.601224312791503165e-02 -1.812278837965199507e+00
-2.424477342278533953e+01 -9.585411297121737215e-03 -2.623156377626518765e-01 -9.585411297121737215e-03 -2.403549559856145379e+01 1.237110290978640781e-02 -2.623156377626518765e-01 1.237110290978640781e-02 -2.122609270531969461e+00
-2.436082928359328648e+01 -8.225467360230324931e-03 -2.324846094695499077e-01 -8.225467360230324931e-03 -2.414343566490730453e+01 1.061633653960393844e-02 -2.324846094695499077e-01 1.061633653960393844e-02 -2.346495524787625353e+00
-2.455788954696477688e+01 -5.549448645702058890e-03 -2.037722447374392398e-01 -5.549448645702058890e-03 -2.433588966655706898e+01 8.598355213894098847e-03 -2.037722447374392398e-01 8.598355213894098847e-03 -2.686240228634578564e+00
-2.465946858521871121e+01 -3.355990682973972183e-03 -1.785036090068116699e-01 -3.355990682973972183e-03 -2.444146079830316864e+01 6.404897251166012141e-03 -1.785036090068116699e-01 6.404897251166012141e-03 -2.937742118640981115e+00
-2.483490135307770430e+01 -1.667028051673345810e-03 -1.593985901514500536e-01 -1.667028051673345810e-03 -2.462275009892264777e+01 8.203532780603043501e-03 -1.593985901514500536e-01 8.203532780603043501e-03 -3.289967598295857165e+00
-2.493810355022406355e+01 8.335140258366729050e-04 -1.402716367164611455e-01 8.335140258366729050e-04 -2.473884982888984396e+01 8.554486054639537720e-03 -1.402716367164611455e-01 8.554486054639537720e-03 -3.597907161683253197e+00
-2.512853957054811360e+01 5.308168269801969222e-03 -1.253561225699101334e-01 5.308168269801969222e-03 -2.494218338203473451e+01 6.821654264084348919e-03 -1.253561225699101334e-01 6.821654264084348919e-03 -4.010496604472406190e+00
-2.521983129095685783e+01 7.238411277002685697e-03 -1.177448234392436816e-01 7.238411277002685697e-03 -2.502864949492547453e+01 6.273289773402327893e-03 -1.177448234392436816e-01 6.273289773402327893e-03 -4.315979494941546868e+00
-2.536909610532050152e+01 6.711981365947944367e-03 -1.128314776027327659e-01 6.711981365947944367e-03 -2.516429293534057976e+01 3.509532740364938730e-03 -1.128314776027327659e-01 3.509532740364938730e-03 -4.668248843755677946e+00
-2.545503578830019009e+01 6.865523423338910913e-03 -1.116250757232323254e-01 6.865523423338910913e-03 -2.523279462751657931e+01 2.763757033037389163e-03 -1.116250757232323254e-01 2.763757033037389163e-03 -4.962303818239004904e+00
-2.557337284538936828e+01 6.185551454893203904e-03 -1.117566832009960209e-01 6.185551454893203904e-03 -2.532108131051638722e+01 3.355990682973972183e-03 -1.117566832009960209e-01 3.355990682973972183e-03 -5.280486830312340452e+00
-2.571351287462806923e+01 5.659121543838462574e-03 -1.162313374449613079e-01 5.659121543838462574e-03 -2.543724684422246440e+01 5.264299110547407227e-03 -1.162313374449613079e-01 5.264299110547407227e-03 -5.620012188363022076e+00
-2.582632241765117342e+01 4.540457982847139091e-03 -1.205305150519083573e-01 4.540457982847139091e-03 -2.553062234969580047e+01 9.080915965694278183e-03 -1.205305150519083573e-01 9.080915965694278183e-03 -5.919857891867950528e+00
-2.589447315655313631e+01 5.637186964211182011e-03 -1.220659356258180089e-01 5.637186964211182011e-03 -2.558646778942685529e+01 1.147178514506789343e-02 -1.220659356258180089e-01 1.147178514506789343e-02 -6.160655707016240434e+00
-2.603437190541593083e+01 4.233373868065206866e-03 -1.213859636573723089e-01 4.233373868065206866e-03 -2.573261789348342887e+01 1.230529917090456699e-02 -1.213859636573723089e-01 1.230529917090456699e-02 -6.489016364036634066e+00
-2.611173516776135273e+01 4.825607518001790754e-03 -1.184247954076893955e-01 4.825607518001790754e-03 -2.581803114655205889e+01 1.081374775624946785e-02 -1.184247954076893955e-01 1.081374775624946785e-02 -6.738544141876581683e+00
-2.621917073877577309e+01 3.114710307073882949e-03 -1.168674402541524521e-01 3.114710307073882949e-03 -2.593801329711328663e+01 1.353363563003229415e-02 -1.168674402541524521e-01 1.353363563003229415e-02 -7.027729639682652518e+00
-2.621188845833951575e+01 2.281196281237209827e-03 -1.144546364951515571e-01 2.281196281237209827e-03 -2.594413304482929661e+01 1.120857018954052146e-02 -1.144546364951515571e-01 1.120857018954052146e-02 -7.194893071022160136e+00
-2.631144951526774278e+01 2.697953294155546605e-03 -1.139501411637241085e-01 2.697953294155546605e-03 -2.604935322330136671e+01 9.607345876749020380e-03 -1.139501411637241085e-01 9.607345876749020380e-03 -7.438301101146095995e+00
-2.633180480516185895e+01 -1.118663560991324133e-03 -1.147178514506789204e-01 -1.118663560991324133e-03 -2.607593793380963021e+01 8.247401939857604627e-03 -1.147178514506789204e-01 8.247401939857604627e-03 -7.574668382688901858e+00
-2.646391677825697286e+01 -1.052859822109481576e-03 -1.169113094134070080e-01 -1.052859822109481576e-03 -2.621026529944709793e+01 7.370018754766370812e-03 -1.169113094134070080e-01 7.370018754766370812e-03 -7.821739487610592789e+00
-2.645584485295413302e+01 -3.948224332910556071e-03 -1.194557206501715985e-01 -3.948224332910556071e-03 -2.619717035540961092e+01 9.629280456376300076e-03 -1.194557206501715985e-01 9.629280456376300076e-03 -7.908753964992015995e+00
-2.656198628377054760e+01 -5.637186964211182011e-03 -1.196092627075625719e-01 -5.637186964211182011e-03 -2.629903454319870448e+01 1.076987859699490499e-02 -1.196092627075625719e-01 1.076987859699490499e-02 -8.100703471310351844e+00
-2.654696109672585891e+01 -6.075878556756799352e-03 -1.169113094134070080e-01 -6.075878556756799352e-03 -2.628572025336494278e+01 9.519607558239896392e-03 -1.169113094134070080e-01 9.519607558239896392e-03 -8.175763602794905438e+00
-2.665759911636586565e+01 -7.764841188057427027e-03 -1.127437392842236541e-01 -7.764841188057427027e-03 -2.640357474970232232e+01 8.773831850912346825e-03 -1.127437392842236541e-01 8.773831850912346825e-03 -8.371134903535097038e+00
-2.670324497657023599e+01 -7.370018754766370812e-03 -1.061414308164121134e-01 -7.370018754766370812e-03 -2.646983911475633633e+01 9.782822513767266623e-03 -1.061414308164121134e-01 9.782822513767266623e-03 -8.490415147548249664e+00
-2.669550206996180464e+01 -5.352037429056531216e-03 -1.004823092725736361e-01 -5.352037429056531216e-03 -2.649181756354287387e+01 9.563476717494457519e-03 -1.004823092725736361e-01 9.563476717494457519e-03 -8.564203073414423883e+00
-2.677398399586821398e+01 -3.948224332910556071e-03 -9.668762699705406305e-02 -3.948224332910556071e-03 -2.659837575137220611e+01 8.006121563957515827e-03 -9.668762699705406305e-02 8.006121563957515827e-03 -8.728207925287602365e+00
-2.676913645377058515e+01 -3.136644886701163946e-03 -9.341937463258921659e-02 -3.136644886701163946e-03 -2.661708594779427628e+01 8.510616895384976593e-03 -9.341937463258921659e-02 8.510616895384976593e-03 -8.789822159460634055e+00
-2.681024185599211052e+01 -2.281196281237209827e-03 -9.083109423657007020e-02 -2.281196281237209827e-03 -2.667870018196730797e+01 6.273289773402327893e-03 -9.083109423657007020e-02 6.273289773402327893e-03 -8.919389721318983888e+00
-2.682243748226487767e+01 -2.500542077510018498e-03 -8.898858954787847164e-02 -2.500542077510018498e-03 -2.669780520082266762e+01 4.847542097629071317e-03 -8.898858954787847164e-02 4.847542097629071317e-03 -9.023293825013412928e+00
-2.682131881870388668e+01 -1.381878516518694582e-03 -9.153300078464306211e-02 -1.381878516518694582e-03 -2.669427373350267629e+01 1.710897210927907587e-03 -9.153300078464306211e-02 1.710897210927907587e-03 -9.105570433195341096e+00
-2.685810310873883822e+01 -2.303130860864490825e-03 -9.377032790662570561e-02 -2.303130860864490825e-03 -2.672741688331949916e+01 1.030925242482200578e-03 -9.377032790662570561e-02 1.030925242482200578e-03 -9.226122882826878424e+00
-2.683283447300820868e+01 -2.610214975646423050e-03 -9.719212232848152555e-02 -2.610214975646423050e-03 -2.669480016341373130e+01 -1.184467299873166691e-03 -9.719212232848152555e-02 -1.184467299873166691e-03 -9.290237659077419607e+00
-2.688510457626001937e+01 -2.676018714528265608e-03 -9.850819710611836977e-02 -2.676018714528265608e-03 -2.674481100496393182e+01 -1.645093472046065030e-03 -9.850819710611836977e-02 -1.645093472046065030e-03 -9.431013791125309353e+00
-2.682546445425344572e+01 -2.610214975646423050e-03 -9.885915038015485878e-02 -2.610214975646423050e-03 -2.669175125684553862e+01 -3.070841147819321389e-03 -9.885915038015485878e-02 -3.070841147819321389e-03 -9.461919613820146679e+00
-2.686444220225111934e+01 3.948224332910556180e-04 -9.554702885643545640e-02 3.948224332910556180e-04 -2.674351686476592249e+01 -4.014028071792398629e-03 -9.554702885643545640e-02 -4.014028071792398629e-03 -9.605832390754736494e+00
-2.688701288468759643e+01 3.005037408937478397e-03 -9.545929053792633068e-02 3.005037408937478397e-03 -2.678141981836186503e+01 -2.281196281237209827e-03 -9.545929053792633068e-02 -2.281196281237209827e-03 -9.783107663302422097e+00
-2.682153816450015782e+01 8.379009417621291478e-03 -9.572250549345369397e-02 8.379009417621291478e-03 -2.673796741612022387e+01 -1.623158892418784032e-03 -9.572250549345369397e-02 -1.623158892418784032e-03 -9.881111365077112296e+00
-2.681524294014712950e+01 1.019957952668560167e-02 -9.697277653220870430e-02 1.019957952668560167e-02 -2.674665350965262434e+01 -1.798635529437030926e-03 -9.697277653220870430e-02 -1.798635529437030926e-03 -1.003050778691852152e+01
-2.675533960318502480e+01 1.305107487823211655e-02 -1.000655522596553132e-01 1.305107487823211655e-02 -2.669056678954566664e+01 -1.710897210927907587e-03 -1.000655522596553132e-01 -1.710897210927907587e-03 -1.015722385342532341e+01
-2.671313747198213662e+01 1.366524310779597927e-02 -1.069091411033669392e-01 1.366524310779597927e-02 -2.664963686396115961e+01 -4.584327142101700218e-03 -1.069091411033669392e-01 -4.584327142101700218e-03 -1.032265445297427497e+01
-2.664965879854078779e+01 1.515679452245107840e-02 -1.148494589284426021e-01 1.515679452245107840e-02 -2.656937823710493873e+01 -6.426831830793293572e-03 -1.148494589284426021e-01 -6.426831830793293572e-03 -1.049793367877587613e+01
-2.662757067685611645e+01 1.434521507624168628e-02 -1.280540758640656973e-01 1.434521507624168628e-02 -2.651337925531649020e+01 -6.470700990047855566e-03 -1.280540758640656973e-01 -6.470700990047855566e-03 -1.070911981142733715e+01
-2.660379359254014275e+01 1.454262629288721395e-02 -1.381659170722421837e-01 1.454262629288721395e-02 -2.645645902118369719e+01 -1.019957952668560167e-02 -1.381659170722421837e-01 -1.019957952668560167e-02 -1.089815201865524230e+01
-2.653902077890078459e+01 1.309494403748667594e-02 -1.464133190120997796e-01 1.309494403748667594e-02 -2.635825790819236047e+01 -1.313881319674123707e-02 -1.464133190120997796e-01 -1.313881319674123707e-02 -1.107452797343820983e+01
-2.648299986253270788e+01 1.710897210927907544e-02 -1.510415153134560540e-01 1.710897210927907544e-02 -2.628049982341365265e+01 -1.585870107052406511e-02 -1.510415153134560540e-01 -1.585870107052406511e-02 -1.127334300317988180e+01
-2.646031950719810055e+01 2.059657027001673621e-02 -1.439127769345897589e-01 2.059657027001673621e-02 -2.624073243054938942e+01 -2.140814971622612486e-02 -1.439127769345897589e-01 -2.140814971622612486e-02 -1.150655145377713318e+01
-2.635733665584801599e+01 2.535637404913668180e-02 -1.313661973877850997e-01 2.535637404913668180e-02 -2.612524686881175739e+01 -2.349193478081780875e-02 -1.313661973877850997e-01 -2.349193478081780875e-02 -1.166667388505628367e+01
-2.632805399204559649e+01 2.616795349534607046e-02 -1.097825710345407269e-01 2.616795349534607046e-02 -2.608714650399916835e+01 -2.454479460292728968e-02 -1.097825710345407269e-01 -2.454479460292728968e-02 -1.192929660693371652e+01
-2.620436489752735909e+01 2.897557968763802422e-02 -8.806733720353267236e-02 2.897557968763802422e-02 -2.594033836255378134e+01 -2.447899086404544539e-02 -8.806733720353267236e-02 -2.447899086404544539e-02 -1.203982495367558592e+01
-2.617949108423002258e+01 3.250704700763024091e-02 -6.450959868383301932e-02 3.250704700763024091e-02 -2.589541634347710897e+01 -2.917299090428355016e-02 -6.450959868383301932e-02 -2.917299090428355016e-02 -1.223326601140857584e+01
-2.617258169164743009e+01 2.983102829310197573e-02 -3.531467319992219467e-02 2.983102829310197573e-02 -2.585273165152241859e+01 -3.263865448539392949e-02 -3.531467319992219467e-02 -3.263865448539392949e-02 -1.243219071404838516e+01
-2.611351186871116070e+01 2.428157964739991945e-02 -1.118663560991324177e-02 2.428157964739991945e-02 -2.575762331425852736e+01 -3.325282271495778874e-02 -1.118663560991324177e-02 -3.325282271495778874e-02 -1.246941369567588076e+01