ITEM: TIMESTEP
38
ITEM: NUMBER OF ATOMS
54
ITEM: BOX BOUNDS xy xz yz pp pp pp
0.00 10.224764055957479 0.00
0.00 10.224764055957479 0.00
0.00 33.615 0.00
ITEM: ATOMS id type x y z fx fy fz
1 1 0.0 0.0 15.000000000000108 0.0 0.0 0.0 
2 1 2.5561910139893698 0.0 15.000000000000108 0.0 0.0 0.0 
3 1 5.1123820279787395 0.0 15.000000000000108 0.0 0.0 0.0 
4 1 7.668573041968109 0.0 15.000000000000108 0.0 0.0 0.0 
5 1 0.0 2.5561910139893698 15.000000000000108 0.0 0.0 0.0 
6 1 2.5561910139893698 2.5561910139893698 15.000000000000108 0.0 0.0 0.0 
7 1 5.1123820279787395 2.5561910139893698 15.000000000000108 0.0 0.0 0.0 
8 1 7.668573041968109 2.5561910139893698 15.000000000000108 0.0 0.0 0.0 
9 1 0.0 5.1123820279787395 15.000000000000108 0.0 0.0 0.0 
10 1 2.5561910139893698 5.1123820279787395 15.000000000000108 0.0 0.0 0.0 
11 1 5.1123820279787395 5.1123820279787395 15.000000000000108 0.0 0.0 0.0 
12 1 7.668573041968109 5.1123820279787395 15.000000000000108 0.0 0.0 0.0 
13 1 0.0 7.668573041968109 15.000000000000108 0.0 0.0 0.0 
14 1 2.5561910139893698 7.668573041968109 15.000000000000108 0.0 0.0 0.0 
15 1 5.1123820279787395 7.668573041968109 15.000000000000108 0.0 0.0 0.0 
16 1 7.668573041968109 7.668573041968109 15.000000000000108 0.0 0.0 0.0 
17 1 1.2780955069946849 1.2780955069946849 16.8075 0.0 0.0 0.0 
18 1 3.8342865209840546 1.2780955069946849 16.8075 0.0 0.0 0.0 
19 1 6.390477534973424 1.2780955069946849 16.8075 0.0 0.0 0.0 
20 1 8.946668548962794 1.2780955069946849 16.8075 0.0 0.0 0.0 
21 1 1.2780955069946849 3.8342865209840546 16.8075 0.0 0.0 0.0 
22 1 3.8342865209840546 3.8342865209840546 16.8075 0.0 0.0 0.0 
23 1 6.390477534973424 3.8342865209840546 16.8075 0.0 0.0 0.0 
24 1 8.946668548962794 3.8342865209840546 16.8075 0.0 0.0 0.0 
25 1 1.2780955069946849 6.390477534973424 16.8075 0.0 0.0 0.0 
26 1 3.8342865209840546 6.390477534973424 16.8075 0.0 0.0 0.0 
27 1 6.390477534973424 6.390477534973424 16.8075 0.0 0.0 0.0 
28 1 8.946668548962794 6.390477534973424 16.8075 0.0 0.0 0.0 
29 1 1.2780955069946849 8.946668548962794 16.8075 0.0 0.0 0.0 
30 1 3.8342865209840546 8.946668548962794 16.8075 0.0 0.0 0.0 
31 1 6.390477534973424 8.946668548962794 16.8075 0.0 0.0 0.0 
32 1 8.946668548962794 8.946668548962794 16.8075 0.0 0.0 0.0 
33 1 0.0 0.0 18.614999999999895 0.0 0.0 0.0 
34 1 2.5561910139893698 0.0 18.614999999999895 0.0 0.0 0.0 
35 1 5.1123820279787395 0.0 18.614999999999895 0.0 0.0 0.0 
36 1 7.668573041968109 0.0 18.614999999999895 0.0 0.0 0.0 
37 1 0.0 2.5561910139893698 18.614999999999895 0.0 0.0 0.0 
38 1 2.5561910139893698 2.5561910139893698 18.614999999999895 0.0 0.0 0.0 
39 1 5.1123820279787395 2.5561910139893698 18.614999999999895 0.0 0.0 0.0 
40 1 7.668573041968109 2.5561910139893698 18.614999999999895 0.0 0.0 0.0 
41 1 0.0 5.1123820279787395 18.614999999999895 0.0 0.0 0.0 
42 1 2.5561910139893698 5.1123820279787395 18.614999999999895 0.0 0.0 0.0 
43 1 5.1123820279787395 5.1123820279787395 18.614999999999895 0.0 0.0 0.0 
44 1 7.668573041968109 5.1123820279787395 18.614999999999895 0.0 0.0 0.0 
45 1 0.0 7.668573041968109 18.614999999999895 0.0 0.0 0.0 
46 1 2.5561910139893698 7.668573041968109 18.614999999999895 0.0 0.0 0.0 
47 1 5.1123820279787395 7.668573041968109 18.614999999999895 0.0 0.0 0.0 
48 1 7.668573041968109 7.668573041968109 18.614999999999895 0.0 0.0 0.0 
49 2 1.2002602318873736 1.2382059143958553 19.875144084498274 0.0 0.0 0.0 
50 3 0.6906007174663261 1.2547309274103988 21.210309357970402 0.0 0.0 0.0 
51 4 0.9862553091342752 0.359054170902844 21.784026046357116 0.0 0.0 0.0 
52 4 1.1593005923503117 2.089284612242251 21.758260639389796 0.0 0.0 0.0 
53 4 -0.41197249920566864 1.2736449903270741 21.2483859016585 0.0 0.0 0.0 
54 4 6.37567567575354 2.7099412651143733 19.713547778101773 0.0 0.0 0.0 
