ITEM: TIMESTEP
40
ITEM: NUMBER OF ATOMS
54
ITEM: BOX BOUNDS xy xz yz pp pp pp
0.00 10.224764055957479 0.00
0.00 10.224764055957479 0.00
0.00 33.615 0.00
ITEM: ATOMS id type x y z fx fy fz
1 1 0.0 0.0 15.000000000000108 0.0 0.0 0.0 
2 1 2.5561910139893698 0.0 15.000000000000108 0.0 0.0 0.0 
3 1 5.1123820279787395 0.0 15.000000000000108 0.0 0.0 0.0 
4 1 7.668573041968109 0.0 15.000000000000108 0.0 0.0 0.0 
5 1 0.0 2.5561910139893698 15.000000000000108 0.0 0.0 0.0 
6 1 2.5561910139893698 2.5561910139893698 15.000000000000108 0.0 0.0 0.0 
7 1 5.1123820279787395 2.5561910139893698 15.000000000000108 0.0 0.0 0.0 
8 1 7.668573041968109 2.5561910139893698 15.000000000000108 0.0 0.0 0.0 
9 1 0.0 5.1123820279787395 15.000000000000108 0.0 0.0 0.0 
10 1 2.5561910139893698 5.1123820279787395 15.000000000000108 0.0 0.0 0.0 
11 1 5.1123820279787395 5.1123820279787395 15.000000000000108 0.0 0.0 0.0 
12 1 7.668573041968109 5.1123820279787395 15.000000000000108 0.0 0.0 0.0 
13 1 0.0 7.668573041968109 15.000000000000108 0.0 0.0 0.0 
14 1 2.5561910139893698 7.668573041968109 15.000000000000108 0.0 0.0 0.0 
15 1 5.1123820279787395 7.668573041968109 15.000000000000108 0.0 0.0 0.0 
16 1 7.668573041968109 7.668573041968109 15.000000000000108 0.0 0.0 0.0 
17 1 1.2780955069946849 1.2780955069946849 16.8075 0.0 0.0 0.0 
18 1 3.8342865209840546 1.2780955069946849 16.8075 0.0 0.0 0.0 
19 1 6.390477534973424 1.2780955069946849 16.8075 0.0 0.0 0.0 
20 1 8.946668548962794 1.2780955069946849 16.8075 0.0 0.0 0.0 
21 1 1.2780955069946849 3.8342865209840546 16.8075 0.0 0.0 0.0 
22 1 3.8342865209840546 3.8342865209840546 16.8075 0.0 0.0 0.0 
23 1 6.390477534973424 3.8342865209840546 16.8075 0.0 0.0 0.0 
24 1 8.946668548962794 3.8342865209840546 16.8075 0.0 0.0 0.0 
25 1 1.2780955069946849 6.390477534973424 16.8075 0.0 0.0 0.0 
26 1 3.8342865209840546 6.390477534973424 16.8075 0.0 0.0 0.0 
27 1 6.390477534973424 6.390477534973424 16.8075 0.0 0.0 0.0 
28 1 8.946668548962794 6.390477534973424 16.8075 0.0 0.0 0.0 
29 1 1.2780955069946849 8.946668548962794 16.8075 0.0 0.0 0.0 
30 1 3.8342865209840546 8.946668548962794 16.8075 0.0 0.0 0.0 
31 1 6.390477534973424 8.946668548962794 16.8075 0.0 0.0 0.0 
32 1 8.946668548962794 8.946668548962794 16.8075 0.0 0.0 0.0 
33 1 0.0 0.0 18.614999999999895 0.0 0.0 0.0 
34 1 2.5561910139893698 0.0 18.614999999999895 0.0 0.0 0.0 
35 1 5.1123820279787395 0.0 18.614999999999895 0.0 0.0 0.0 
36 1 7.668573041968109 0.0 18.614999999999895 0.0 0.0 0.0 
37 1 0.0 2.5561910139893698 18.614999999999895 0.0 0.0 0.0 
38 1 2.5561910139893698 2.5561910139893698 18.614999999999895 0.0 0.0 0.0 
39 1 5.1123820279787395 2.5561910139893698 18.614999999999895 0.0 0.0 0.0 
40 1 7.668573041968109 2.5561910139893698 18.614999999999895 0.0 0.0 0.0 
41 1 0.0 5.1123820279787395 18.614999999999895 0.0 0.0 0.0 
42 1 2.5561910139893698 5.1123820279787395 18.614999999999895 0.0 0.0 0.0 
43 1 5.1123820279787395 5.1123820279787395 18.614999999999895 0.0 0.0 0.0 
44 1 7.668573041968109 5.1123820279787395 18.614999999999895 0.0 0.0 0.0 
45 1 0.0 7.668573041968109 18.614999999999895 0.0 0.0 0.0 
46 1 2.5561910139893698 7.668573041968109 18.614999999999895 0.0 0.0 0.0 
47 1 5.1123820279787395 7.668573041968109 18.614999999999895 0.0 0.0 0.0 
48 1 7.668573041968109 7.668573041968109 18.614999999999895 0.0 0.0 0.0 
49 2 1.1892220153044828 1.2384118521950311 19.88377728681241 0.0 0.0 0.0 
50 3 0.6650124777309577 1.3047101069937572 21.2100843661225 0.0 0.0 0.0 
51 4 0.8941288770076078 0.3818172121896616 21.78881582863043 0.0 0.0 0.0 
52 4 1.1321315113583048 2.1590810677700563 21.74149460869809 0.0 0.0 0.0 
53 4 -0.42776750909316874 1.4259813454296753 21.211963740911987 0.0 0.0 0.0 
54 4 6.383106060000685 2.5565269823523127 19.656142386557928 0.0 0.0 0.0 
